 Entering Link 1 = C:\G09W\l1.exe PID=      9132.
  
 Copyright (c) 1988,1990,1992,1993,1995,1998,2003,2009,2010,
            Gaussian, Inc.  All Rights Reserved.
  
 This is part of the Gaussian(R) 09 program.  It is based on
 the Gaussian(R) 03 system (copyright 2003, Gaussian, Inc.),
 the Gaussian(R) 98 system (copyright 1998, Gaussian, Inc.),
 the Gaussian(R) 94 system (copyright 1995, Gaussian, Inc.),
 the Gaussian 92(TM) system (copyright 1992, Gaussian, Inc.),
 the Gaussian 90(TM) system (copyright 1990, Gaussian, Inc.),
 the Gaussian 88(TM) system (copyright 1988, Gaussian, Inc.),
 the Gaussian 86(TM) system (copyright 1986, Carnegie Mellon
 University), and the Gaussian 82(TM) system (copyright 1983,
 Carnegie Mellon University). Gaussian is a federally registered
 trademark of Gaussian, Inc.
  
 This software contains proprietary and confidential information,
 including trade secrets, belonging to Gaussian, Inc.
  
 This software is provided under written license and may be
 used, copied, transmitted, or stored only in accord with that
 written license.
  
 The following legend is applicable only to US Government
 contracts under FAR:
  
                    RESTRICTED RIGHTS LEGEND
  
 Use, reproduction and disclosure by the US Government is
 subject to restrictions as set forth in subparagraphs (a)
 and (c) of the Commercial Computer Software - Restricted
 Rights clause in FAR 52.227-19.
  
 Gaussian, Inc.
 340 Quinnipiac St., Bldg. 40, Wallingford CT 06492
  
  
 ---------------------------------------------------------------
 Warning -- This program may not be used in any manner that
 competes with the business of Gaussian, Inc. or will provide
 assistance to any competitor of Gaussian, Inc.  The licensee
 of this program is prohibited from giving any competitor of
 Gaussian, Inc. access to this program.  By using this program,
 the user acknowledges that Gaussian, Inc. is engaged in the
 business of creating and licensing software in the field of
 computational chemistry and represents and warrants to the
 licensee that it is not a competitor of Gaussian, Inc. and that
 it will not use this program in any manner prohibited above.
 ---------------------------------------------------------------
  

 Cite this work as:
 Gaussian 09, Revision B.01,
 M. J. Frisch, G. W. Trucks, H. B. Schlegel, G. E. Scuseria, 
 M. A. Robb, J. R. Cheeseman, G. Scalmani, V. Barone, B. Mennucci, 
 G. A. Petersson, H. Nakatsuji, M. Caricato, X. Li, H. P. Hratchian, 
 A. F. Izmaylov, J. Bloino, G. Zheng, J. L. Sonnenberg, M. Hada, 
 M. Ehara, K. Toyota, R. Fukuda, J. Hasegawa, M. Ishida, T. Nakajima, 
 Y. Honda, O. Kitao, H. Nakai, T. Vreven, J. A. Montgomery, Jr., 
 J. E. Peralta, F. Ogliaro, M. Bearpark, J. J. Heyd, E. Brothers, 
 K. N. Kudin, V. N. Staroverov, T. Keith, R. Kobayashi, J. Normand, 
 K. Raghavachari, A. Rendell, J. C. Burant, S. S. Iyengar, J. Tomasi, 
 M. Cossi, N. Rega, J. M. Millam, M. Klene, J. E. Knox, J. B. Cross, 
 V. Bakken, C. Adamo, J. Jaramillo, R. Gomperts, R. E. Stratmann, 
 O. Yazyev, A. J. Austin, R. Cammi, C. Pomelli, J. W. Ochterski, 
 R. L. Martin, K. Morokuma, V. G. Zakrzewski, G. A. Voth, 
 P. Salvador, J. J. Dannenberg, S. Dapprich, A. D. Daniels, 
 O. Farkas, J. B. Foresman, J. V. Ortiz, J. Cioslowski, 
 and D. J. Fox, Gaussian, Inc., Wallingford CT, 2010.
 
 ******************************************
 Gaussian 09:  IA32W-G09RevB.01 12-Aug-2010
                04-Feb-2022 
 ******************************************
 %nprocshared=4
 Will use up to    4 processors via shared memory.
 %chk=C:\Users\Lucas\Desktop\Transmission_Calculation_Software\opt\molecule.chk
 ----------------------------------------
 # opt b3lyp/6-31g(d,p) geom=connectivity
 ----------------------------------------
 1/14=-1,18=20,19=15,26=3,38=1,57=2/1,3;
 2/9=110,12=2,17=6,18=5,40=1/2;
 3/5=1,6=6,7=101,11=2,16=1,25=1,30=1,71=1,74=-5/1,2,3;
 4//1;
 5/5=2,38=5/2;
 6/7=2,8=2,9=2,10=2,28=1/1;
 7//1,2,3,16;
 1/14=-1,18=20,19=15/3(2);
 2/9=110/2;
 99//99;
 2/9=110/2;
 3/5=1,6=6,7=101,11=2,16=1,25=1,30=1,71=1,74=-5/1,2,3;
 4/5=5,16=3/1;
 5/5=2,38=5/2;
 7//1,2,3,16;
 1/14=-1,18=20,19=15/3(-5);
 2/9=110/2;
 6/7=2,8=2,9=2,10=2,19=2,28=1/1;
 99/9=1/99;
 -------------------
 Title Card Required
 -------------------
 Symbolic Z-matrix:
 Charge =  0 Multiplicity = 1
 C                    -1.80262  -1.26006   0.00068 
 C                    -0.40746  -1.26006   0.00068 
 C                     0.29008  -0.05231   0.00068 
 C                    -0.40757   1.1562   -0.00052 
 C                    -1.8024    1.15612  -0.001 
 C                    -2.5      -0.05208   0. 
 H                    -2.35238  -2.21238   0.00113 
 H                     0.14205  -2.21257   0.002 
 H                     0.14263   2.10834  -0.00058 
 H                    -2.35252   2.1084   -0.00195 
 S                    -4.28     -0.05179  -0.00029 
 H                    -4.7179   -0.05425   1.23435 
 S                     2.07008  -0.05218   0.00171 
 H                     2.50808  -0.05398  -1.2329 
 

 GradGradGradGradGradGradGradGradGradGradGradGradGradGradGradGradGradGrad
 Berny optimization.
 Initialization pass.
                           ----------------------------
                           !    Initial Parameters    !
                           ! (Angstroms and Degrees)  !
 --------------------------                            --------------------------
 ! Name  Definition              Value          Derivative Info.                !
 --------------------------------------------------------------------------------
 ! R1    R(1,2)                  1.3952         estimate D2E/DX2                !
 ! R2    R(1,6)                  1.3948         estimate D2E/DX2                !
 ! R3    R(1,7)                  1.0996         estimate D2E/DX2                !
 ! R4    R(2,3)                  1.3947         estimate D2E/DX2                !
 ! R5    R(2,8)                  1.0997         estimate D2E/DX2                !
 ! R6    R(3,4)                  1.3954         estimate D2E/DX2                !
 ! R7    R(3,13)                 1.78           estimate D2E/DX2                !
 ! R8    R(4,5)                  1.3948         estimate D2E/DX2                !
 ! R9    R(4,9)                  1.0997         estimate D2E/DX2                !
 ! R10   R(5,6)                  1.3951         estimate D2E/DX2                !
 ! R11   R(5,10)                 1.0998         estimate D2E/DX2                !
 ! R12   R(6,11)                 1.78           estimate D2E/DX2                !
 ! R13   R(11,12)                1.31           estimate D2E/DX2                !
 ! R14   R(13,14)                1.31           estimate D2E/DX2                !
 ! A1    A(2,1,6)              119.9985         estimate D2E/DX2                !
 ! A2    A(2,1,7)              119.9972         estimate D2E/DX2                !
 ! A3    A(6,1,7)              120.0043         estimate D2E/DX2                !
 ! A4    A(1,2,3)              120.0086         estimate D2E/DX2                !
 ! A5    A(1,2,8)              119.9808         estimate D2E/DX2                !
 ! A6    A(3,2,8)              120.0106         estimate D2E/DX2                !
 ! A7    A(2,3,4)              119.9942         estimate D2E/DX2                !
 ! A8    A(2,3,13)             120.0128         estimate D2E/DX2                !
 ! A9    A(4,3,13)             119.993          estimate D2E/DX2                !
 ! A10   A(3,4,5)              119.994          estimate D2E/DX2                !
 ! A11   A(3,4,9)              119.9811         estimate D2E/DX2                !
 ! A12   A(5,4,9)              120.0249         estimate D2E/DX2                !
 ! A13   A(4,5,6)              120.0047         estimate D2E/DX2                !
 ! A14   A(4,5,10)             120.0113         estimate D2E/DX2                !
 ! A15   A(6,5,10)             119.984          estimate D2E/DX2                !
 ! A16   A(1,6,5)              120.0            estimate D2E/DX2                !
 ! A17   A(1,6,11)             120.008          estimate D2E/DX2                !
 ! A18   A(5,6,11)             119.992          estimate D2E/DX2                !
 ! A19   A(6,11,12)            109.519          estimate D2E/DX2                !
 ! A20   A(3,13,14)            109.5            estimate D2E/DX2                !
 ! D1    D(6,1,2,3)              0.0323         estimate D2E/DX2                !
 ! D2    D(6,1,2,8)            179.9532         estimate D2E/DX2                !
 ! D3    D(7,1,2,3)           -179.9729         estimate D2E/DX2                !
 ! D4    D(7,1,2,8)             -0.052          estimate D2E/DX2                !
 ! D5    D(2,1,6,5)              0.0149         estimate D2E/DX2                !
 ! D6    D(2,1,6,11)           179.9892         estimate D2E/DX2                !
 ! D7    D(7,1,6,5)           -179.9798         estimate D2E/DX2                !
 ! D8    D(7,1,6,11)            -0.0056         estimate D2E/DX2                !
 ! D9    D(1,2,3,4)             -0.0568         estimate D2E/DX2                !
 ! D10   D(1,2,3,13)           179.9619         estimate D2E/DX2                !
 ! D11   D(8,2,3,4)           -179.9777         estimate D2E/DX2                !
 ! D12   D(8,2,3,13)             0.041          estimate D2E/DX2                !
 ! D13   D(2,3,4,5)              0.0341         estimate D2E/DX2                !
 ! D14   D(2,3,4,9)           -179.9964         estimate D2E/DX2                !
 ! D15   D(13,3,4,5)          -179.9846         estimate D2E/DX2                !
 ! D16   D(13,3,4,9)            -0.0151         estimate D2E/DX2                !
 ! D17   D(2,3,13,14)           89.9339         estimate D2E/DX2                !
 ! D18   D(4,3,13,14)          -90.0474         estimate D2E/DX2                !
 ! D19   D(3,4,5,6)              0.0131         estimate D2E/DX2                !
 ! D20   D(3,4,5,10)          -179.9995         estimate D2E/DX2                !
 ! D21   D(9,4,5,6)           -179.9563         estimate D2E/DX2                !
 ! D22   D(9,4,5,10)             0.0311         estimate D2E/DX2                !
 ! D23   D(4,5,6,1)             -0.0376         estimate D2E/DX2                !
 ! D24   D(4,5,6,11)           179.9881         estimate D2E/DX2                !
 ! D25   D(10,5,6,1)           179.975          estimate D2E/DX2                !
 ! D26   D(10,5,6,11)            0.0007         estimate D2E/DX2                !
 ! D27   D(1,6,11,12)           89.8553         estimate D2E/DX2                !
 ! D28   D(5,6,11,12)          -90.1704         estimate D2E/DX2                !
 --------------------------------------------------------------------------------
 Trust Radius=3.00D-01 FncErr=1.00D-07 GrdErr=1.00D-06
 Number of steps in this run=     72 maximum allowed number of steps=    100.
 GradGradGradGradGradGradGradGradGradGradGradGradGradGradGradGradGradGrad

                          Input orientation:                          
 ---------------------------------------------------------------------
 Center     Atomic      Atomic             Coordinates (Angstroms)
 Number     Number       Type             X           Y           Z
 ---------------------------------------------------------------------
      1          6           0       -1.802618   -1.260059    0.000682
      2          6           0       -0.407458   -1.260059    0.000682
      3          6           0        0.290080   -0.052308    0.000682
      4          6           0       -0.407574    1.156201   -0.000517
      5          6           0       -1.802399    1.156123   -0.000996
      6          6           0       -2.500000   -0.052083    0.000000
      7          1           0       -2.352377   -2.212376    0.001132
      8          1           0        0.142050   -2.212572    0.001997
      9          1           0        0.142626    2.108344   -0.000576
     10          1           0       -2.352521    2.108404   -0.001949
     11         16           0       -4.280000   -0.051787   -0.000291
     12          1           0       -4.717899   -0.054252    1.234350
     13         16           0        2.070080   -0.052179    0.001708
     14          1           0        2.508079   -0.053983   -1.232898
 ---------------------------------------------------------------------
                    Distance matrix (angstroms):
                    1          2          3          4          5
     1  C    0.000000
     2  C    1.395160   0.000000
     3  C    2.416205   1.394712   0.000000
     4  C    2.790065   2.416260   1.395427   0.000000
     5  C    2.416183   2.789946   2.416356   1.394825   0.000000
     6  C    1.394829   2.416183   2.790080   2.416236   1.395138
     7  H    1.099610   2.165553   3.412986   3.889675   3.413102
     8  H    2.165414   1.099655   2.165330   3.413316   3.889601
     9  H    3.889745   3.413024   2.165678   1.099680   2.165606
    10  H    3.413055   3.889707   3.413506   2.165528   1.099761
    11  S    2.756328   4.056662   4.570080   4.056466   2.756366
    12  H    3.387443   4.642823   5.157692   4.644243   3.389871
    13  S    4.056694   2.756296   1.780000   2.756620   4.056611
    14  H    4.643107   3.387727   2.537960   3.388855   4.643507
                    6          7          8          9         10
     6  C    0.000000
     7  H    2.165331   0.000000
     8  H    3.412938   2.494427   0.000000
     9  H    3.413344   4.989355   4.320917   0.000000
    10  H    2.165516   4.320781   4.989362   2.495147   0.000000
    11  S    1.780000   2.895493   4.921740   4.921970   2.895100
    12  H    2.538247   3.431329   5.458584   5.461370   3.435190
    13  S    4.570080   4.921847   2.895617   2.895331   4.922147
    14  H    5.157605   5.459443   3.432574   3.433605   5.460456
                   11         12         13         14
    11  S    0.000000
    12  H    1.310000   0.000000
    13  S    6.350080   6.898990   0.000000
    14  H    6.899082   7.635579   1.310000   0.000000
 Stoichiometry    C6H6S2
 Framework group  C1[X(C6H6S2)]
 Deg. of freedom    36
 Full point group                 C1      NOp   1
 Largest Abelian subgroup         C1      NOp   1
 Largest concise Abelian subgroup C1      NOp   1
                         Standard orientation:                         
 ---------------------------------------------------------------------
 Center     Atomic      Atomic             Coordinates (Angstroms)
 Number     Number       Type             X           Y           Z
 ---------------------------------------------------------------------
      1          6           0       -0.697398   -1.208019   -0.016358
      2          6           0        0.697402   -1.207964    0.015357
      3          6           0        1.394693   -0.000186    0.032017
      4          6           0        0.697181    1.208296    0.015763
      5          6           0       -0.697273    1.208164   -0.016423
      6          6           0       -1.394650   -0.000070   -0.032089
      7          1           0       -1.246973   -2.160358   -0.029039
      8          1           0        1.246790   -2.160456    0.028530
      9          1           0        1.247188    2.160461    0.028845
     10          1           0       -1.247283    2.160423   -0.029248
     11         16           0       -3.174183    0.000156   -0.072844
     12          1           0       -3.640035   -0.003149    1.151522
     13         16           0        3.174210    0.000013    0.073507
     14          1           0        3.640161   -0.000951   -1.150825
 ---------------------------------------------------------------------
 Rotational constants (GHZ):      5.5029554      0.6735474      0.6043517
 Standard basis: 6-31G(d,p) (6D, 7F)
 There are   158 symmetry adapted basis functions of A   symmetry.
 Integral buffers will be    262144 words long.
 Raffenetti 2 integral format.
 Two-electron integral symmetry is turned on.
   158 basis functions,   314 primitive gaussians,   158 cartesian basis functions
    37 alpha electrons       37 beta electrons
       nuclear repulsion energy       454.3001091322 Hartrees.
 NAtoms=   14 NActive=   14 NUniq=   14 SFac= 1.00D+00 NAtFMM=   50 NAOKFM=F Big=F
 One-electron integrals computed using PRISM.
 NBasis=   158 RedAO= T  NBF=   158
 NBsUse=   158 1.00D-06 NBFU=   158
 Harris functional with IExCor=  402 diagonalized for initial guess.
 ExpMin= 1.17D-01 ExpMax= 2.19D+04 ExpMxC= 3.30D+03 IAcc=1 IRadAn=         1 AccDes= 0.00D+00
 HarFok:  IExCor=  402 AccDes= 0.00D+00 IRadAn=         1 IDoV= 1
 ScaDFX=  1.000000  1.000000  1.000000  1.000000
 FoFCou: FMM=F IPFlag=           0 FMFlag=      100000 FMFlg1=           0
         NFxFlg=           0 DoJE=T BraDBF=F KetDBF=T FulRan=T
         Omega=  0.000000  0.000000  1.000000  0.000000  0.000000 ICntrl=     500 IOpCl=  0
         NMat0=    1 NMatS0=    1 NMatT0=    0 NMatD0=    1 NMtDS0=    0 NMtDT0=    0
         I1Cent=           4 NGrid=           0.
 Petite list used in FoFCou.
 Initial guess orbital symmetries:
       Occupied  (A) (A) (A) (A) (A) (A) (A) (A) (A) (A) (A) (A)
                 (A) (A) (A) (A) (A) (A) (A) (A) (A) (A) (A) (A)
                 (A) (A) (A) (A) (A) (A) (A) (A) (A) (A) (A) (A)
                 (A)
       Virtual   (A) (A) (A) (A) (A) (A) (A) (A) (A) (A) (A) (A)
                 (A) (A) (A) (A) (A) (A) (A) (A) (A) (A) (A) (A)
                 (A) (A) (A) (A) (A) (A) (A) (A) (A) (A) (A) (A)
                 (A) (A) (A) (A) (A) (A) (A) (A) (A) (A) (A) (A)
                 (A) (A) (A) (A) (A) (A) (A) (A) (A) (A) (A) (A)
                 (A) (A) (A) (A) (A) (A) (A) (A) (A) (A) (A) (A)
                 (A) (A) (A) (A) (A) (A) (A) (A) (A) (A) (A) (A)
                 (A) (A) (A) (A) (A) (A) (A) (A) (A) (A) (A) (A)
                 (A) (A) (A) (A) (A) (A) (A) (A) (A) (A) (A) (A)
                 (A) (A) (A) (A) (A) (A) (A) (A) (A) (A) (A) (A)
                 (A)
 The electronic state of the initial guess is 1-A.
 Requested convergence on RMS density matrix=1.00D-08 within 128 cycles.
 Requested convergence on MAX density matrix=1.00D-06.
 Requested convergence on             energy=1.00D-06.
 No special actions if energy rises.
 Integral accuracy reduced to 1.0D-05 until final iterations.
 Initial convergence to 1.0D-05 achieved.  Increase integral accuracy.
 SCF Done:  E(RB3LYP) =  -1028.61781931     A.U. after   14 cycles
             Convg  =    0.2892D-08             -V/T =  2.0047

 **********************************************************************

            Population analysis using the SCF density.

 **********************************************************************

 Orbital symmetries:
       Occupied  (A) (A) (A) (A) (A) (A) (A) (A) (A) (A) (A) (A)
                 (A) (A) (A) (A) (A) (A) (A) (A) (A) (A) (A) (A)
                 (A) (A) (A) (A) (A) (A) (A) (A) (A) (A) (A) (A)
                 (A)
       Virtual   (A) (A) (A) (A) (A) (A) (A) (A) (A) (A) (A) (A)
                 (A) (A) (A) (A) (A) (A) (A) (A) (A) (A) (A) (A)
                 (A) (A) (A) (A) (A) (A) (A) (A) (A) (A) (A) (A)
                 (A) (A) (A) (A) (A) (A) (A) (A) (A) (A) (A) (A)
                 (A) (A) (A) (A) (A) (A) (A) (A) (A) (A) (A) (A)
                 (A) (A) (A) (A) (A) (A) (A) (A) (A) (A) (A) (A)
                 (A) (A) (A) (A) (A) (A) (A) (A) (A) (A) (A) (A)
                 (A) (A) (A) (A) (A) (A) (A) (A) (A) (A) (A) (A)
                 (A) (A) (A) (A) (A) (A) (A) (A) (A) (A) (A) (A)
                 (A) (A) (A) (A) (A) (A) (A) (A) (A) (A) (A) (A)
                 (A)
 The electronic state is 1-A.
 Alpha  occ. eigenvalues --  -88.88077 -88.88076 -10.23774 -10.23773 -10.21307
 Alpha  occ. eigenvalues --  -10.21304 -10.21251 -10.21249  -7.94436  -7.94435
 Alpha  occ. eigenvalues --   -5.90961  -5.90960  -5.90525  -5.90524  -5.89890
 Alpha  occ. eigenvalues --   -5.89889  -0.88393  -0.81339  -0.76514  -0.75193
 Alpha  occ. eigenvalues --   -0.68974  -0.62585  -0.59644  -0.52364  -0.47742
 Alpha  occ. eigenvalues --   -0.47496  -0.44981  -0.43700  -0.40523  -0.39743
 Alpha  occ. eigenvalues --   -0.36639  -0.33752  -0.32934  -0.27084  -0.26305
 Alpha  occ. eigenvalues --   -0.25401  -0.24786
 Alpha virt. eigenvalues --   -0.04336  -0.02052   0.02864   0.05434   0.05868
 Alpha virt. eigenvalues --    0.08270   0.12767   0.12856   0.14356   0.16033
 Alpha virt. eigenvalues --    0.18252   0.24518   0.24603   0.26118   0.26712
 Alpha virt. eigenvalues --    0.32560   0.33522   0.34064   0.35893   0.35968
 Alpha virt. eigenvalues --    0.37783   0.40701   0.40936   0.46299   0.52342
 Alpha virt. eigenvalues --    0.52454   0.55998   0.56864   0.57681   0.57726
 Alpha virt. eigenvalues --    0.59585   0.60329   0.60752   0.61775   0.63274
 Alpha virt. eigenvalues --    0.65661   0.72189   0.74797   0.75975   0.76612
 Alpha virt. eigenvalues --    0.78372   0.79288   0.79851   0.79910   0.82081
 Alpha virt. eigenvalues --    0.82192   0.87403   0.88338   0.89174   0.91683
 Alpha virt. eigenvalues --    0.92607   0.97819   0.98910   1.00924   1.03798
 Alpha virt. eigenvalues --    1.03906   1.11974   1.15542   1.21159   1.23146
 Alpha virt. eigenvalues --    1.24880   1.29814   1.33769   1.33879   1.38504
 Alpha virt. eigenvalues --    1.39312   1.39967   1.41285   1.51846   1.52257
 Alpha virt. eigenvalues --    1.74872   1.76508   1.79034   1.80768   1.89013
 Alpha virt. eigenvalues --    1.94214   1.95345   1.98457   2.01057   2.02000
 Alpha virt. eigenvalues --    2.04227   2.05147   2.09703   2.10134   2.10589
 Alpha virt. eigenvalues --    2.16467   2.16555   2.26317   2.28850   2.33812
 Alpha virt. eigenvalues --    2.38399   2.39666   2.43817   2.45843   2.46226
 Alpha virt. eigenvalues --    2.48110   2.56549   2.58937   2.62939   2.64126
 Alpha virt. eigenvalues --    2.65479   2.71060   2.78826   2.79169   2.80395
 Alpha virt. eigenvalues --    2.81863   3.01699   3.15934   3.20226   3.20990
 Alpha virt. eigenvalues --    3.28785   3.46428   3.71778   3.98446   4.02691
 Alpha virt. eigenvalues --    4.11996   4.13901   4.15066   4.35275   4.41335
 Alpha virt. eigenvalues --    4.73176
          Condensed to atoms (all electrons):
              1          2          3          4          5          6
     1  C    4.892972   0.487813  -0.031012  -0.041426  -0.031090   0.510899
     2  C    0.487813   4.892918   0.510921  -0.031062  -0.041424  -0.031006
     3  C   -0.031012   0.510921   4.979969   0.510548  -0.031011  -0.033589
     4  C   -0.041426  -0.031062   0.510548   4.892966   0.488182  -0.031021
     5  C   -0.031090  -0.041424  -0.031011   0.488182   4.892793   0.510708
     6  C    0.510899  -0.031006  -0.033589  -0.031021   0.510708   4.979774
     7  H    0.375300  -0.039429   0.004527   0.000453   0.004687  -0.043541
     8  H   -0.039438   0.375294  -0.043544   0.004686   0.000453   0.004528
     9  H    0.000453   0.004686  -0.043523   0.375286  -0.039425   0.004524
    10  H    0.004688   0.000453   0.004523  -0.039436   0.375277  -0.043515
    11  S   -0.066163   0.006665   0.000235   0.006664  -0.066157   0.296573
    12  H   -0.002062  -0.000056   0.000017  -0.000057  -0.002040  -0.014966
    13  S    0.006666  -0.066158   0.296579  -0.066144   0.006666   0.000234
    14  H   -0.000056  -0.002058  -0.014976  -0.002048  -0.000057   0.000017
              7          8          9         10         11         12
     1  C    0.375300  -0.039438   0.000453   0.004688  -0.066163  -0.002062
     2  C   -0.039429   0.375294   0.004686   0.000453   0.006665  -0.000056
     3  C    0.004527  -0.043544  -0.043523   0.004523   0.000235   0.000017
     4  C    0.000453   0.004686   0.375286  -0.039436   0.006664  -0.000057
     5  C    0.004687   0.000453  -0.039425   0.375277  -0.066157  -0.002040
     6  C   -0.043541   0.004528   0.004524  -0.043515   0.296573  -0.014966
     7  H    0.590447  -0.005781   0.000014  -0.000161  -0.001991  -0.000090
     8  H   -0.005781   0.590464  -0.000161   0.000014  -0.000250   0.000000
     9  H    0.000014  -0.000161   0.590384  -0.005774  -0.000250   0.000000
    10  H   -0.000161   0.000014  -0.005774   0.590401  -0.001988  -0.000092
    11  S   -0.001991  -0.000250  -0.000250  -0.001988  15.647578   0.243631
    12  H   -0.000090   0.000000   0.000000  -0.000092   0.243631   0.698082
    13  S   -0.000250  -0.001994  -0.001977  -0.000250   0.000017   0.000000
    14  H    0.000000  -0.000091  -0.000092   0.000000   0.000000   0.000000
             13         14
     1  C    0.006666  -0.000056
     2  C   -0.066158  -0.002058
     3  C    0.296579  -0.014976
     4  C   -0.066144  -0.002048
     5  C    0.006666  -0.000057
     6  C    0.000234   0.000017
     7  H   -0.000250   0.000000
     8  H   -0.001994  -0.000091
     9  H   -0.001977  -0.000092
    10  H   -0.000250   0.000000
    11  S    0.000017   0.000000
    12  H    0.000000   0.000000
    13  S   15.647469   0.243655
    14  H    0.243655   0.698072
 Mulliken atomic charges:
              1
     1  C   -0.067543
     2  C   -0.067558
     3  C   -0.109664
     4  C   -0.067592
     5  C   -0.067561
     6  C   -0.109619
     7  H    0.115817
     8  H    0.115819
     9  H    0.115853
    10  H    0.115860
    11  S   -0.064565
    12  H    0.077632
    13  S   -0.064512
    14  H    0.077633
 Sum of Mulliken atomic charges =   0.00000
 Mulliken charges with hydrogens summed into heavy atoms:
              1
     1  C    0.048273
     2  C    0.048261
     3  C   -0.109664
     4  C    0.048261
     5  C    0.048299
     6  C   -0.109619
    11  S    0.013067
    13  S    0.013121
 Sum of Mulliken charges with hydrogens summed into heavy atoms =   0.00000
 Electronic spatial extent (au):  <R**2>=           1732.4571
 Charge=              0.0000 electrons
 Dipole moment (field-independent basis, Debye):
    X=              0.0005    Y=             -0.0042    Z=              0.0001  Tot=              0.0042
 Quadrupole moment (field-independent basis, Debye-Ang):
   XX=            -65.9838   YY=            -57.6562   ZZ=            -61.0246
   XY=              0.0097   XZ=             -9.3362   YZ=             -0.0055
 Traceless Quadrupole moment (field-independent basis, Debye-Ang):
   XX=             -4.4289   YY=              3.8987   ZZ=              0.5303
   XY=              0.0097   XZ=             -9.3362   YZ=             -0.0055
 Octapole moment (field-independent basis, Debye-Ang**2):
  XXX=              0.0173  YYY=             -0.0080  ZZZ=              0.0064  XYY=             -0.0003
  XXY=             -0.0596  XXZ=              0.0023  XZZ=             -0.0066  YZZ=             -0.0033
  YYZ=             -0.0009  XYZ=              0.0340
 Hexadecapole moment (field-independent basis, Debye-Ang**3):
 XXXX=          -1945.1438 YYYY=           -295.6808 ZZZZ=            -79.1481 XXXY=              0.1474
 XXXZ=           -147.2164 YYYX=              0.0143 YYYZ=             -0.0058 ZZZX=            -13.5095
 ZZZY=             -0.0092 XXYY=           -405.7694 XXZZ=           -316.3690 YYZZ=            -73.4662
 XXYZ=             -0.0617 YYXZ=             -3.5102 ZZXY=              0.0054
 N-N= 4.543001091322D+02 E-N=-3.338460638374D+03  KE= 1.023823970176D+03
 Calling FoFJK, ICntrl=      2127 FMM=F ISym2X=0 I1Cent= 0 IOpClX= 0 NMat=1 NMatS=1 NMatT=0.
 ***** Axes restored to original set *****
 -------------------------------------------------------------------
 Center     Atomic                   Forces (Hartrees/Bohr)
 Number     Number              X              Y              Z
 -------------------------------------------------------------------
      1        6          -0.000179452   -0.012081474    0.000441545
      2        6           0.000145734   -0.012239005   -0.000325434
      3        6           0.000504599    0.000363147   -0.016940841
      4        6           0.000541999    0.011803384   -0.000437016
      5        6          -0.000446111    0.012097562    0.000468133
      6        6          -0.000578173    0.000066422    0.016852181
      7        1           0.004317611    0.008902031    0.000181047
      8        1          -0.004306569    0.008933205   -0.000231779
      9        1          -0.004366440   -0.008927446   -0.000201519
     10        1           0.004377977   -0.008972268    0.000205018
     11       16          -0.014627439    0.000091829   -0.041330200
     12        1           0.007200714   -0.000057104    0.027025875
     13       16           0.014590787    0.000059861    0.041310750
     14        1          -0.007175238   -0.000040145   -0.027017759
 -------------------------------------------------------------------
 Cartesian Forces:  Max     0.041330200 RMS     0.012867975

 GradGradGradGradGradGradGradGradGradGradGradGradGradGradGradGradGradGrad
 Berny optimization.
 Internal  Forces:  Max     0.039168650 RMS     0.008768846
 Search for a local minimum.
 Step number   1 out of a maximum of   72
 All quantities printed in internal units (Hartrees-Bohrs-Radians)
 Mixed Optimization -- RFO/linear search
 Second derivative matrix not updated -- first step.
 ITU=  0
     Eigenvalues ---    0.00635   0.00635   0.01851   0.01907   0.02152
     Eigenvalues ---    0.02153   0.02155   0.02155   0.02155   0.02156
     Eigenvalues ---    0.02157   0.16000   0.16000   0.16000   0.16000
     Eigenvalues ---    0.16000   0.16000   0.22000   0.22982   0.24000
     Eigenvalues ---    0.25000   0.25000   0.27758   0.27758   0.28975
     Eigenvalues ---    0.28975   0.33709   0.33718   0.33720   0.33725
     Eigenvalues ---    0.42116   0.42487   0.46412   0.46453   0.46466
     Eigenvalues ---    0.46497
 RFO step:  Lambda=-2.25783179D-02 EMin= 6.34863039D-03
 Linear search not attempted -- first point.
 Maximum step size (   0.300) exceeded in Quadratic search.
    -- Step size scaled by   0.913
 Iteration  1 RMS(Cart)=  0.06059262 RMS(Int)=  0.00502344
 Iteration  2 RMS(Cart)=  0.00701634 RMS(Int)=  0.00009102
 Iteration  3 RMS(Cart)=  0.00004766 RMS(Int)=  0.00008354
 Iteration  4 RMS(Cart)=  0.00000000 RMS(Int)=  0.00008354
 Variable       Old X    -DE/DX   Delta X   Delta X   Delta X     New X
                                 (Linear)    (Quad)   (Total)
    R1        2.63647  -0.00010   0.00000  -0.00017  -0.00017   2.63630
    R2        2.63584   0.00479   0.00000   0.00898   0.00898   2.64483
    R3        2.07796  -0.00987   0.00000  -0.02504  -0.02504   2.05292
    R4        2.63562   0.00488   0.00000   0.00913   0.00913   2.64476
    R5        2.07805  -0.00989   0.00000  -0.02510  -0.02510   2.05295
    R6        2.63697   0.00444   0.00000   0.00833   0.00833   2.64530
    R7        3.36371   0.00742   0.00000   0.02258   0.02258   3.38629
    R8        2.63584   0.00003   0.00000   0.00005   0.00005   2.63589
    R9        2.07809  -0.00991   0.00000  -0.02516  -0.02516   2.05293
   R10        2.63643   0.00467   0.00000   0.00875   0.00875   2.64518
   R11        2.07825  -0.00996   0.00000  -0.02528  -0.02528   2.05296
   R12        3.36371   0.00743   0.00000   0.02260   0.02260   3.38631
   R13        2.47554   0.02307   0.00000   0.06743   0.06743   2.54297
   R14        2.47554   0.02307   0.00000   0.06743   0.06743   2.54297
    A1        2.09437   0.00093   0.00000   0.00329   0.00336   2.09773
    A2        2.09435   0.00027   0.00000   0.00205   0.00201   2.09635
    A3        2.09447  -0.00121   0.00000  -0.00534  -0.00539   2.08908
    A4        2.09455   0.00092   0.00000   0.00320   0.00327   2.09782
    A5        2.09406   0.00030   0.00000   0.00221   0.00216   2.09622
    A6        2.09458  -0.00122   0.00000  -0.00541  -0.00545   2.08912
    A7        2.09429  -0.00187   0.00000  -0.00651  -0.00666   2.08763
    A8        2.09462   0.00093   0.00000   0.00326   0.00299   2.09760
    A9        2.09427   0.00093   0.00000   0.00326   0.00298   2.09725
   A10        2.09429   0.00098   0.00000   0.00337   0.00344   2.09773
   A11        2.09407  -0.00120   0.00000  -0.00525  -0.00529   2.08877
   A12        2.09483   0.00022   0.00000   0.00188   0.00183   2.09666
   A13        2.09448   0.00094   0.00000   0.00325   0.00332   2.09780
   A14        2.09459   0.00026   0.00000   0.00200   0.00195   2.09655
   A15        2.09411  -0.00119   0.00000  -0.00525  -0.00529   2.08882
   A16        2.09440  -0.00190   0.00000  -0.00659  -0.00674   2.08766
   A17        2.09453   0.00097   0.00000   0.00335   0.00308   2.09761
   A18        2.09426   0.00093   0.00000   0.00322   0.00295   2.09720
   A19        1.91147  -0.03917   0.00000  -0.19588  -0.19588   1.71559
   A20        1.91114  -0.03911   0.00000  -0.19557  -0.19557   1.71557
    D1        0.00056   0.00001   0.00000  -0.00080  -0.00078  -0.00022
    D2        3.14078  -0.00028   0.00000  -0.00640  -0.00640   3.13438
    D3       -3.14112  -0.00031   0.00000  -0.00714  -0.00714   3.13492
    D4       -0.00091  -0.00060   0.00000  -0.01275  -0.01276  -0.01367
    D5        0.00026  -0.00003   0.00000   0.00029   0.00027   0.00053
    D6        3.14140  -0.00186   0.00000  -0.03978  -0.03975   3.10166
    D7       -3.14124   0.00029   0.00000   0.00664   0.00661  -3.13463
    D8       -0.00010  -0.00154   0.00000  -0.03343  -0.03341  -0.03351
    D9       -0.00099   0.00000   0.00000   0.00098   0.00097  -0.00003
   D10        3.14093  -0.00185   0.00000  -0.03952  -0.03949   3.10144
   D11       -3.14120   0.00029   0.00000   0.00658   0.00655  -3.13465
   D12        0.00072  -0.00156   0.00000  -0.03392  -0.03390  -0.03319
   D13        0.00060   0.00001   0.00000  -0.00066  -0.00065  -0.00005
   D14       -3.14153  -0.00030   0.00000  -0.00682  -0.00679   3.13486
   D15       -3.14132   0.00186   0.00000   0.03983   0.03980  -3.10152
   D16       -0.00026   0.00155   0.00000   0.03367   0.03365   0.03339
   D17        1.56964   0.00092   0.00000   0.02027   0.02036   1.59000
   D18       -1.57162  -0.00092   0.00000  -0.02023  -0.02032  -1.59194
   D19        0.00023  -0.00004   0.00000   0.00016   0.00014   0.00037
   D20       -3.14158   0.00029   0.00000   0.00672   0.00672  -3.13486
   D21       -3.14083   0.00027   0.00000   0.00632   0.00632  -3.13451
   D22        0.00054   0.00061   0.00000   0.01289   0.01290   0.01345
   D23       -0.00066   0.00005   0.00000   0.00003   0.00005  -0.00061
   D24        3.14138   0.00188   0.00000   0.04009   0.04006  -3.10174
   D25        3.14116  -0.00029   0.00000  -0.00654  -0.00651   3.13465
   D26        0.00001   0.00154   0.00000   0.03352   0.03350   0.03352
   D27        1.56827   0.00091   0.00000   0.02002   0.02011   1.58838
   D28       -1.57377  -0.00091   0.00000  -0.02005  -0.02014  -1.59391
         Item               Value     Threshold  Converged?
 Maximum Force            0.039169     0.000450     NO 
 RMS     Force            0.008769     0.000300     NO 
 Maximum Displacement     0.331755     0.001800     NO 
 RMS     Displacement     0.065605     0.001200     NO 
 Predicted change in Energy=-1.236712D-02
 GradGradGradGradGradGradGradGradGradGradGradGradGradGradGradGradGradGrad

                          Input orientation:                          
 ---------------------------------------------------------------------
 Center     Atomic      Atomic             Coordinates (Angstroms)
 Number     Number       Type             X           Y           Z
 ---------------------------------------------------------------------
      1          6           0       -1.802603   -1.261781   -0.001899
      2          6           0       -0.407546   -1.261814    0.003695
      3          6           0        0.296399   -0.052192    0.005799
      4          6           0       -0.407527    1.157770    0.002225
      5          6           0       -1.802366    1.157797   -0.003460
      6          6           0       -2.506396   -0.052032   -0.005177
      7          1           0       -2.347618   -2.201501   -0.009794
      8          1           0        0.137302   -2.201633    0.013014
      9          1           0        0.137776    2.097328    0.010207
     10          1           0       -2.347529    2.097447   -0.012556
     11         16           0       -4.297024   -0.051606   -0.074204
     12          1           0       -4.542341   -0.054381    1.248926
     13         16           0        2.087004   -0.051955    0.075160
     14          1           0        2.332538   -0.054036   -1.247931
 ---------------------------------------------------------------------
                    Distance matrix (angstroms):
                    1          2          3          4          5
     1  C    0.000000
     2  C    1.395068   0.000000
     3  C    2.422596   1.399545   0.000000
     4  C    2.792934   2.419584   1.399833   0.000000
     5  C    2.419579   2.792865   2.422597   1.394851   0.000000
     6  C    1.399582   2.422566   2.802816   2.422587   1.399767
     7  H    1.086360   2.155707   3.407432   3.879278   3.403267
     8  H    2.155638   1.086373   2.155333   3.403314   3.879222
     9  H    3.879282   3.403124   2.155370   1.086365   2.155703
    10  H    3.403156   3.879231   3.407586   2.155648   1.086382
    11  S    2.773425   4.074151   4.594119   4.073894   2.773261
    12  H    3.244772   4.483863   4.995876   4.485562   3.247355
    13  S    4.074145   2.773382   1.791949   2.773345   4.073928
    14  H    4.484488   3.245513   2.391172   3.246431   4.484939
                    6          7          8          9         10
     6  C    0.000000
     7  H    2.155331   0.000000
     8  H    3.407383   2.485024   0.000000
     9  H    3.407584   4.965633   4.298963   0.000000
    10  H    2.155354   4.298949   4.965595   2.485409   0.000000
    11  S    1.791957   2.902823   4.928841   4.928741   2.902198
    12  H    2.391203   3.318330   5.295020   5.297903   3.322484
    13  S    4.594103   4.928858   2.902812   2.902263   4.928764
    14  H    4.995971   5.296078   3.319822   3.320882   5.296985
                   11         12         13         14
    11  S    0.000000
    12  H    1.345682   0.000000
    13  S    6.385775   6.732456   0.000000
    14  H    6.732661   7.314250   1.345682   0.000000
 Stoichiometry    C6H6S2
 Framework group  C1[X(C6H6S2)]
 Deg. of freedom    36
 Full point group                 C1      NOp   1
 Largest Abelian subgroup         C1      NOp   1
 Largest concise Abelian subgroup C1      NOp   1
                         Standard orientation:                         
 ---------------------------------------------------------------------
 Center     Atomic      Atomic             Coordinates (Angstroms)
 Number     Number       Type             X           Y           Z
 ---------------------------------------------------------------------
      1          6           0        0.697536    1.209820   -0.004429
      2          6           0       -0.697507    1.209795    0.003893
      3          6           0       -1.401391    0.000144    0.008211
      4          6           0       -0.697418   -1.209789    0.004099
      5          6           0        0.697407   -1.209759   -0.004313
      6          6           0        1.401377    0.000100   -0.008245
      7          1           0        1.242491    2.149559   -0.014041
      8          1           0       -1.242379    2.149597    0.013626
      9          1           0       -1.242661   -2.149366    0.013799
     10          1           0        1.242594   -2.149390   -0.013824
     11         16           0        3.191866   -0.000294   -0.080773
     12          1           0        3.439771    0.003409    1.241872
     13         16           0       -3.191858   -0.000125    0.081074
     14          1           0       -3.439978    0.001028   -1.241535
 ---------------------------------------------------------------------
 Rotational constants (GHZ):      5.4745759      0.6688896      0.6009322
 Standard basis: 6-31G(d,p) (6D, 7F)
 There are   158 symmetry adapted basis functions of A   symmetry.
 Integral buffers will be    262144 words long.
 Raffenetti 2 integral format.
 Two-electron integral symmetry is turned on.
   158 basis functions,   314 primitive gaussians,   158 cartesian basis functions
    37 alpha electrons       37 beta electrons
       nuclear repulsion energy       453.0842812264 Hartrees.
 NAtoms=   14 NActive=   14 NUniq=   14 SFac= 1.00D+00 NAtFMM=   50 NAOKFM=F Big=F
 One-electron integrals computed using PRISM.
 NBasis=   158 RedAO= T  NBF=   158
 NBsUse=   158 1.00D-06 NBFU=   158
 Initial guess read from the read-write file.
 B after Tr=     0.000000    0.000000    0.000000
         Rot=    1.000000    0.000000    0.000000    0.000000 Ang=   0.00 deg.
 Initial guess orbital symmetries:
       Occupied  (A) (A) (A) (A) (A) (A) (A) (A) (A) (A) (A) (A)
                 (A) (A) (A) (A) (A) (A) (A) (A) (A) (A) (A) (A)
                 (A) (A) (A) (A) (A) (A) (A) (A) (A) (A) (A) (A)
                 (A)
       Virtual   (A) (A) (A) (A) (A) (A) (A) (A) (A) (A) (A) (A)
                 (A) (A) (A) (A) (A) (A) (A) (A) (A) (A) (A) (A)
                 (A) (A) (A) (A) (A) (A) (A) (A) (A) (A) (A) (A)
                 (A) (A) (A) (A) (A) (A) (A) (A) (A) (A) (A) (A)
                 (A) (A) (A) (A) (A) (A) (A) (A) (A) (A) (A) (A)
                 (A) (A) (A) (A) (A) (A) (A) (A) (A) (A) (A) (A)
                 (A) (A) (A) (A) (A) (A) (A) (A) (A) (A) (A) (A)
                 (A) (A) (A) (A) (A) (A) (A) (A) (A) (A) (A) (A)
                 (A) (A) (A) (A) (A) (A) (A) (A) (A) (A) (A) (A)
                 (A) (A) (A) (A) (A) (A) (A) (A) (A) (A) (A) (A)
                 (A)
 Harris functional with IExCor=  402 diagonalized for initial guess.
 ExpMin= 1.17D-01 ExpMax= 2.19D+04 ExpMxC= 3.30D+03 IAcc=1 IRadAn=         1 AccDes= 0.00D+00
 HarFok:  IExCor=  402 AccDes= 0.00D+00 IRadAn=         1 IDoV= 1
 ScaDFX=  1.000000  1.000000  1.000000  1.000000
 FoFCou: FMM=F IPFlag=           0 FMFlag=      100000 FMFlg1=           0
         NFxFlg=           0 DoJE=T BraDBF=F KetDBF=T FulRan=T
         Omega=  0.000000  0.000000  1.000000  0.000000  0.000000 ICntrl=     500 IOpCl=  0
         NMat0=    1 NMatS0=    1 NMatT0=    0 NMatD0=    1 NMtDS0=    0 NMtDT0=    0
         I1Cent=           4 NGrid=           0.
 Petite list used in FoFCou.
 Requested convergence on RMS density matrix=1.00D-08 within 128 cycles.
 Requested convergence on MAX density matrix=1.00D-06.
 Requested convergence on             energy=1.00D-06.
 No special actions if energy rises.
 Integral accuracy reduced to 1.0D-05 until final iterations.
 Initial convergence to 1.0D-05 achieved.  Increase integral accuracy.
 SCF Done:  E(RB3LYP) =  -1028.62903128     A.U. after   14 cycles
             Convg  =    0.7194D-08             -V/T =  2.0048
 Calling FoFJK, ICntrl=      2127 FMM=F ISym2X=0 I1Cent= 0 IOpClX= 0 NMat=1 NMatS=1 NMatT=0.
 ***** Axes restored to original set *****
 -------------------------------------------------------------------
 Center     Atomic                   Forces (Hartrees/Bohr)
 Number     Number              X              Y              Z
 -------------------------------------------------------------------
      1        6           0.000302619   -0.000474560   -0.001128219
      2        6          -0.000312298   -0.000535670    0.001175827
      3        6          -0.004326802    0.000144969   -0.002178029
      4        6          -0.000107702    0.000358523    0.001135473
      5        6           0.000132434    0.000433948   -0.001117407
      6        6           0.004306871    0.000072850    0.002129193
      7        1           0.000341116    0.000913556   -0.000020749
      8        1          -0.000334889    0.000924975    0.000003188
      9        1          -0.000362311   -0.000906576    0.000011272
     10        1           0.000359167   -0.000920392   -0.000011979
     11       16          -0.005934627    0.000006132   -0.003713203
     12        1           0.000522409   -0.000009128    0.002746996
     13       16           0.005933657   -0.000003219    0.003714700
     14        1          -0.000519643   -0.000005407   -0.002747062
 -------------------------------------------------------------------
 Cartesian Forces:  Max     0.005934627 RMS     0.002013724

 GradGradGradGradGradGradGradGradGradGradGradGradGradGradGradGradGradGrad
 Berny optimization.
 Using GEDIIS/GDIIS optimizer.
 Internal  Forces:  Max     0.005449734 RMS     0.001228610
 Search for a local minimum.
 Step number   2 out of a maximum of   72
 All quantities printed in internal units (Hartrees-Bohrs-Radians)
 Mixed Optimization -- RFO/linear search
 Update second derivatives using D2CorX and points    1    2
 DE= -1.12D-02 DEPred=-1.24D-02 R= 9.07D-01
 SS=  1.41D+00  RLast= 3.21D-01 DXNew= 5.0454D-01 9.6299D-01
 Trust test= 9.07D-01 RLast= 3.21D-01 DXMaxT set to 5.05D-01
 ITU=  1  0
 Use linear search instead of GDIIS.
     Eigenvalues ---    0.00635   0.00635   0.01853   0.01943   0.02152
     Eigenvalues ---    0.02154   0.02155   0.02155   0.02156   0.02157
     Eigenvalues ---    0.02185   0.15996   0.16000   0.16000   0.16000
     Eigenvalues ---    0.16000   0.18007   0.22000   0.22974   0.23951
     Eigenvalues ---    0.24979   0.24979   0.26873   0.27758   0.28975
     Eigenvalues ---    0.29460   0.33711   0.33719   0.33723   0.33754
     Eigenvalues ---    0.42112   0.42519   0.46434   0.46455   0.46473
     Eigenvalues ---    0.46567
 RFO step:  Lambda=-2.79595715D-04 EMin= 6.34863042D-03
 Quartic linear search produced a step of  0.09022.
 Iteration  1 RMS(Cart)=  0.00750066 RMS(Int)=  0.00006487
 Iteration  2 RMS(Cart)=  0.00006988 RMS(Int)=  0.00001670
 Iteration  3 RMS(Cart)=  0.00000001 RMS(Int)=  0.00001670
 Variable       Old X    -DE/DX   Delta X   Delta X   Delta X     New X
                                 (Linear)    (Quad)   (Total)
    R1        2.63630  -0.00007  -0.00002  -0.00014  -0.00016   2.63614
    R2        2.64483  -0.00008   0.00081  -0.00097  -0.00016   2.64467
    R3        2.05292  -0.00096  -0.00226  -0.00088  -0.00314   2.04979
    R4        2.64476  -0.00006   0.00082  -0.00093  -0.00010   2.64465
    R5        2.05295  -0.00097  -0.00226  -0.00089  -0.00316   2.04979
    R6        2.64530  -0.00021   0.00075  -0.00122  -0.00047   2.64483
    R7        3.38629   0.00545   0.00204   0.01934   0.02138   3.40767
    R8        2.63589   0.00004   0.00000   0.00009   0.00010   2.63599
    R9        2.05293  -0.00097  -0.00227  -0.00088  -0.00315   2.04978
   R10        2.64518  -0.00016   0.00079  -0.00114  -0.00035   2.64482
   R11        2.05296  -0.00098  -0.00228  -0.00090  -0.00319   2.04978
   R12        3.38631   0.00545   0.00204   0.01933   0.02137   3.40768
   R13        2.54297   0.00260   0.00608   0.00369   0.00978   2.55275
   R14        2.54297   0.00260   0.00608   0.00370   0.00978   2.55275
    A1        2.09773   0.00039   0.00030   0.00146   0.00173   2.09946
    A2        2.09635  -0.00002   0.00018   0.00008   0.00025   2.09661
    A3        2.08908  -0.00036  -0.00049  -0.00148  -0.00198   2.08711
    A4        2.09782   0.00037   0.00030   0.00140   0.00166   2.09948
    A5        2.09622  -0.00001   0.00019   0.00018   0.00037   2.09659
    A6        2.08912  -0.00036  -0.00049  -0.00151  -0.00202   2.08711
    A7        2.08763  -0.00076  -0.00060  -0.00286  -0.00351   2.08412
    A8        2.09760   0.00036   0.00027   0.00130   0.00155   2.09915
    A9        2.09725   0.00039   0.00027   0.00145   0.00170   2.09896
   A10        2.09773   0.00039   0.00031   0.00146   0.00173   2.09947
   A11        2.08877  -0.00034  -0.00048  -0.00134  -0.00183   2.08695
   A12        2.09666  -0.00005   0.00017  -0.00005   0.00010   2.09677
   A13        2.09780   0.00037   0.00030   0.00141   0.00167   2.09947
   A14        2.09655  -0.00003   0.00018   0.00003   0.00020   2.09675
   A15        2.08882  -0.00034  -0.00048  -0.00138  -0.00186   2.08696
   A16        2.08766  -0.00076  -0.00061  -0.00288  -0.00353   2.08413
   A17        2.09761   0.00037   0.00028   0.00134   0.00160   2.09921
   A18        2.09720   0.00039   0.00027   0.00144   0.00169   2.09890
   A19        1.71559  -0.00257  -0.01767   0.00150  -0.01617   1.69942
   A20        1.71557  -0.00257  -0.01764   0.00151  -0.01613   1.69944
    D1       -0.00022  -0.00032  -0.00007  -0.01645  -0.01655  -0.01677
    D2        3.13438  -0.00011  -0.00058  -0.00425  -0.00485   3.12953
    D3        3.13492  -0.00012  -0.00064  -0.00493  -0.00559   3.12933
    D4       -0.01367   0.00010  -0.00115   0.00727   0.00611  -0.00755
    D5        0.00053   0.00031   0.00002   0.01591   0.01591   0.01645
    D6        3.10166   0.00012  -0.00359   0.01327   0.00969   3.11134
    D7       -3.13463   0.00011   0.00060   0.00443   0.00501  -3.12963
    D8       -0.03351  -0.00008  -0.00301   0.00179  -0.00122  -0.03473
    D9       -0.00003   0.00033   0.00009   0.01654   0.01661   0.01658
   D10        3.10144   0.00013  -0.00356   0.01348   0.00992   3.11136
   D11       -3.13465   0.00011   0.00059   0.00438   0.00495  -3.12970
   D12       -0.03319  -0.00009  -0.00306   0.00132  -0.00173  -0.03492
   D13       -0.00005  -0.00032  -0.00006  -0.01627  -0.01631  -0.01636
   D14        3.13486  -0.00011  -0.00061  -0.00462  -0.00521   3.12965
   D15       -3.10152  -0.00012   0.00359  -0.01321  -0.00962  -3.11115
   D16        0.03339   0.00009   0.00304  -0.00156   0.00148   0.03487
   D17        1.59000   0.00011   0.00184   0.00137   0.00322   1.59322
   D18       -1.59194  -0.00011  -0.00183  -0.00180  -0.00365  -1.59559
   D19        0.00037   0.00031   0.00001   0.01592   0.01596   0.01633
   D20       -3.13486   0.00011   0.00061   0.00453   0.00515  -3.12971
   D21       -3.13451   0.00010   0.00057   0.00421   0.00480  -3.12971
   D22        0.01345  -0.00010   0.00116  -0.00717  -0.00600   0.00744
   D23       -0.00061  -0.00031   0.00000  -0.01564  -0.01562  -0.01623
   D24       -3.10174  -0.00012   0.00361  -0.01300  -0.00939  -3.11113
   D25        3.13465  -0.00011  -0.00059  -0.00430  -0.00487   3.12978
   D26        0.03352   0.00008   0.00302  -0.00166   0.00136   0.03488
   D27        1.58838   0.00010   0.00181   0.00071   0.00254   1.59092
   D28       -1.59391  -0.00011  -0.00182  -0.00204  -0.00387  -1.59777
         Item               Value     Threshold  Converged?
 Maximum Force            0.005450     0.000450     NO 
 RMS     Force            0.001229     0.000300     NO 
 Maximum Displacement     0.025190     0.001800     NO 
 RMS     Displacement     0.007505     0.001200     NO 
 Predicted change in Energy=-2.190387D-04
 GradGradGradGradGradGradGradGradGradGradGradGradGradGradGradGradGradGrad

                          Input orientation:                          
 ---------------------------------------------------------------------
 Center     Atomic      Atomic             Coordinates (Angstroms)
 Number     Number       Type             X           Y           Z
 ---------------------------------------------------------------------
      1          6           0       -1.802528   -1.260298   -0.007485
      2          6           0       -0.407648   -1.260384    0.009741
      3          6           0        0.298407   -0.052057    0.007469
      4          6           0       -0.407503    1.156468    0.007975
      5          6           0       -1.802304    1.156558   -0.008985
      6          6           0       -2.508396   -0.051852   -0.006926
      7          1           0       -2.346933   -2.198437   -0.017180
      8          1           0        0.136610   -2.198597    0.020576
      9          1           0        0.137055    2.094515    0.017483
     10          1           0       -2.346708    2.094681   -0.019701
     11         16           0       -4.310326   -0.051474   -0.076281
     12          1           0       -4.535002   -0.055199    1.255755
     13         16           0        2.100334   -0.051974    0.076802
     14          1           0        2.325011   -0.054538   -1.255237
 ---------------------------------------------------------------------
                    Distance matrix (angstroms):
                    1          2          3          4          5
     1  C    0.000000
     2  C    1.394986   0.000000
     3  C    2.423633   1.399490   0.000000
     4  C    2.790536   2.416852   1.399586   0.000000
     5  C    2.416857   2.790523   2.423635   1.394903   0.000000
     6  C    1.399497   2.423627   2.806840   2.423635   1.399580
     7  H    1.084701   2.154413   3.406667   3.875230   3.398923
     8  H    2.154402   1.084702   2.152669   3.398923   3.875219
     9  H    3.875227   3.398840   2.152651   1.084697   2.154432
    10  H    3.398848   3.875213   3.406737   2.154420   1.084696
    11  S    2.784787   4.086534   4.609494   4.086349   2.784609
    12  H    3.242600   4.476614   4.992001   4.478988   3.245853
    13  S    4.086500   2.784731   1.803260   2.784657   4.086378
    14  H    4.477424   3.243711   2.387793   3.244822   4.478239
                    6          7          8          9         10
     6  C    0.000000
     7  H    2.152673   0.000000
     8  H    3.406659   2.483830   0.000000
     9  H    3.406743   4.959923   4.293114   0.000000
    10  H    2.152652   4.293119   4.959912   2.484042   0.000000
    11  S    1.803265   2.909958   4.939105   4.938954   2.909464
    12  H    2.387783   3.316847   5.286188   5.289869   3.322259
    13  S    4.609490   4.939061   2.909874   2.909535   4.938990
    14  H    4.992004   5.287358   3.318703   3.320451   5.288728
                   11         12         13         14
    11  S    0.000000
    12  H    1.350857   0.000000
    13  S    6.412488   6.739260   0.000000
    14  H    6.739261   7.305126   1.350857   0.000000
 Stoichiometry    C6H6S2
 Framework group  C1[X(C6H6S2)]
 Deg. of freedom    36
 Full point group                 C1      NOp   1
 Largest Abelian subgroup         C1      NOp   1
 Largest concise Abelian subgroup C1      NOp   1
                         Standard orientation:                         
 ---------------------------------------------------------------------
 Center     Atomic      Atomic             Coordinates (Angstroms)
 Number     Number       Type             X           Y           Z
 ---------------------------------------------------------------------
      1          6           0       -0.697446    1.208416    0.009385
      2          6           0        0.697415    1.208425   -0.009286
      3          6           0        1.403394    0.000052   -0.008642
      4          6           0        0.697406   -1.208427   -0.009314
      5          6           0       -0.697376   -1.208441    0.009091
      6          6           0       -1.403392    0.000016    0.008660
      7          1           0       -1.241780    2.146582    0.020341
      8          1           0        1.241723    2.146611   -0.019987
      9          1           0        1.241894   -2.146502   -0.020083
     10          1           0       -1.241830   -2.146537    0.019674
     11         16           0       -3.205250   -0.000298    0.079882
     12          1           0       -3.431305    0.004430   -1.251918
     13         16           0        3.205249   -0.000095   -0.079842
     14          1           0        3.431305    0.001465    1.251965
 ---------------------------------------------------------------------
 Rotational constants (GHZ):      5.4843027      0.6640324      0.5971881
 Standard basis: 6-31G(d,p) (6D, 7F)
 There are   158 symmetry adapted basis functions of A   symmetry.
 Integral buffers will be    262144 words long.
 Raffenetti 2 integral format.
 Two-electron integral symmetry is turned on.
   158 basis functions,   314 primitive gaussians,   158 cartesian basis functions
    37 alpha electrons       37 beta electrons
       nuclear repulsion energy       452.0855185151 Hartrees.
 NAtoms=   14 NActive=   14 NUniq=   14 SFac= 1.00D+00 NAtFMM=   50 NAOKFM=F Big=F
 One-electron integrals computed using PRISM.
 NBasis=   158 RedAO= T  NBF=   158
 NBsUse=   158 1.00D-06 NBFU=   158
 Initial guess read from the read-write file.
 B after Tr=     0.000000    0.000000    0.000000
         Rot=    1.000000    0.000000    0.000000    0.000000 Ang=   0.00 deg.
 Initial guess orbital symmetries:
       Occupied  (A) (A) (A) (A) (A) (A) (A) (A) (A) (A) (A) (A)
                 (A) (A) (A) (A) (A) (A) (A) (A) (A) (A) (A) (A)
                 (A) (A) (A) (A) (A) (A) (A) (A) (A) (A) (A) (A)
                 (A)
       Virtual   (A) (A) (A) (A) (A) (A) (A) (A) (A) (A) (A) (A)
                 (A) (A) (A) (A) (A) (A) (A) (A) (A) (A) (A) (A)
                 (A) (A) (A) (A) (A) (A) (A) (A) (A) (A) (A) (A)
                 (A) (A) (A) (A) (A) (A) (A) (A) (A) (A) (A) (A)
                 (A) (A) (A) (A) (A) (A) (A) (A) (A) (A) (A) (A)
                 (A) (A) (A) (A) (A) (A) (A) (A) (A) (A) (A) (A)
                 (A) (A) (A) (A) (A) (A) (A) (A) (A) (A) (A) (A)
                 (A) (A) (A) (A) (A) (A) (A) (A) (A) (A) (A) (A)
                 (A) (A) (A) (A) (A) (A) (A) (A) (A) (A) (A) (A)
                 (A) (A) (A) (A) (A) (A) (A) (A) (A) (A) (A) (A)
                 (A)
 Harris functional with IExCor=  402 diagonalized for initial guess.
 ExpMin= 1.17D-01 ExpMax= 2.19D+04 ExpMxC= 3.30D+03 IAcc=1 IRadAn=         1 AccDes= 0.00D+00
 HarFok:  IExCor=  402 AccDes= 0.00D+00 IRadAn=         1 IDoV= 1
 ScaDFX=  1.000000  1.000000  1.000000  1.000000
 FoFCou: FMM=F IPFlag=           0 FMFlag=      100000 FMFlg1=           0
         NFxFlg=           0 DoJE=T BraDBF=F KetDBF=T FulRan=T
         Omega=  0.000000  0.000000  1.000000  0.000000  0.000000 ICntrl=     500 IOpCl=  0
         NMat0=    1 NMatS0=    1 NMatT0=    0 NMatD0=    1 NMtDS0=    0 NMtDT0=    0
         I1Cent=           4 NGrid=           0.
 Petite list used in FoFCou.
 Requested convergence on RMS density matrix=1.00D-08 within 128 cycles.
 Requested convergence on MAX density matrix=1.00D-06.
 Requested convergence on             energy=1.00D-06.
 No special actions if energy rises.
 Integral accuracy reduced to 1.0D-05 until final iterations.
 Initial convergence to 1.0D-05 achieved.  Increase integral accuracy.
 SCF Done:  E(RB3LYP) =  -1028.62925851     A.U. after   14 cycles
             Convg  =    0.5145D-08             -V/T =  2.0048
 Calling FoFJK, ICntrl=      2127 FMM=F ISym2X=0 I1Cent= 0 IOpClX= 0 NMat=1 NMatS=1 NMatT=0.
 ***** Axes restored to original set *****
 -------------------------------------------------------------------
 Center     Atomic                   Forces (Hartrees/Bohr)
 Number     Number              X              Y              Z
 -------------------------------------------------------------------
      1        6          -0.000362539    0.000199182    0.000314893
      2        6           0.000361265    0.000185577   -0.000321336
      3        6          -0.002104933    0.000052773    0.000163298
      4        6           0.000446942   -0.000247734   -0.000312538
      5        6          -0.000443493   -0.000239174    0.000302415
      6        6           0.002102878    0.000039834   -0.000150516
      7        1          -0.000030605   -0.000244079    0.000008949
      8        1           0.000032113   -0.000241968   -0.000006473
      9        1           0.000021107    0.000250529   -0.000009929
     10        1          -0.000023817    0.000249353    0.000011990
     11       16          -0.001035582    0.000002968   -0.000044926
     12        1           0.000113776   -0.000003334   -0.000085027
     13       16           0.001037493   -0.000003018    0.000044472
     14        1          -0.000114605   -0.000000910    0.000084725
 -------------------------------------------------------------------
 Cartesian Forces:  Max     0.002104933 RMS     0.000547481

 GradGradGradGradGradGradGradGradGradGradGradGradGradGradGradGradGradGrad
 Berny optimization.
 Using GEDIIS/GDIIS optimizer.
 Internal  Forces:  Max     0.000928157 RMS     0.000255187
 Search for a local minimum.
 Step number   3 out of a maximum of   72
 All quantities printed in internal units (Hartrees-Bohrs-Radians)
 Mixed Optimization -- En-DIIS/RFO-DIIS
 Update second derivatives using D2CorX and points    1    2    3
 DE= -2.27D-04 DEPred=-2.19D-04 R= 1.04D+00
 SS=  1.41D+00  RLast= 6.33D-02 DXNew= 8.4853D-01 1.8977D-01
 Trust test= 1.04D+00 RLast= 6.33D-02 DXMaxT set to 5.05D-01
 ITU=  1  1  0
 Use linear search instead of GDIIS.
     Eigenvalues ---    0.00635   0.00635   0.01852   0.01965   0.02152
     Eigenvalues ---    0.02154   0.02155   0.02155   0.02156   0.02157
     Eigenvalues ---    0.02290   0.15884   0.16000   0.16000   0.16000
     Eigenvalues ---    0.16001   0.16560   0.21997   0.22971   0.23586
     Eigenvalues ---    0.24972   0.24972   0.26011   0.27758   0.28975
     Eigenvalues ---    0.29923   0.33711   0.33719   0.33723   0.34492
     Eigenvalues ---    0.42097   0.42531   0.46442   0.46456   0.46475
     Eigenvalues ---    0.46711
 RFO step:  Lambda=-1.89463331D-05 EMin= 6.34844233D-03
 Quartic linear search produced a step of  0.05162.
 Iteration  1 RMS(Cart)=  0.00134079 RMS(Int)=  0.00000276
 Iteration  2 RMS(Cart)=  0.00000176 RMS(Int)=  0.00000233
 Iteration  3 RMS(Cart)=  0.00000000 RMS(Int)=  0.00000233
 Variable       Old X    -DE/DX   Delta X   Delta X   Delta X     New X
                                 (Linear)    (Quad)   (Total)
    R1        2.63614  -0.00019  -0.00001  -0.00042  -0.00043   2.63571
    R2        2.64467  -0.00025  -0.00001  -0.00056  -0.00057   2.64410
    R3        2.04979   0.00023  -0.00016   0.00071   0.00055   2.05034
    R4        2.64465  -0.00025  -0.00001  -0.00055  -0.00055   2.64410
    R5        2.04979   0.00023  -0.00016   0.00071   0.00055   2.05034
    R6        2.64483  -0.00030  -0.00002  -0.00067  -0.00070   2.64414
    R7        3.40767   0.00093   0.00110   0.00338   0.00449   3.41216
    R8        2.63599  -0.00014   0.00001  -0.00031  -0.00031   2.63568
    R9        2.04978   0.00023  -0.00016   0.00071   0.00055   2.05033
   R10        2.64482  -0.00030  -0.00002  -0.00066  -0.00068   2.64414
   R11        2.04978   0.00023  -0.00016   0.00072   0.00055   2.05033
   R12        3.40768   0.00093   0.00110   0.00338   0.00448   3.41216
   R13        2.55275  -0.00010   0.00050  -0.00041   0.00010   2.55285
   R14        2.55275  -0.00010   0.00050  -0.00041   0.00010   2.55285
    A1        2.09946  -0.00028   0.00009  -0.00124  -0.00115   2.09831
    A2        2.09661   0.00004   0.00001  -0.00003  -0.00002   2.09659
    A3        2.08711   0.00024  -0.00010   0.00128   0.00118   2.08828
    A4        2.09948  -0.00029   0.00009  -0.00125  -0.00117   2.09831
    A5        2.09659   0.00005   0.00002   0.00000   0.00001   2.09660
    A6        2.08711   0.00024  -0.00010   0.00127   0.00117   2.08827
    A7        2.08412   0.00057  -0.00018   0.00256   0.00237   2.08650
    A8        2.09915  -0.00029   0.00008  -0.00126  -0.00118   2.09797
    A9        2.09896  -0.00028   0.00009  -0.00120  -0.00111   2.09784
   A10        2.09947  -0.00028   0.00009  -0.00124  -0.00116   2.09831
   A11        2.08695   0.00025  -0.00009   0.00136   0.00126   2.08821
   A12        2.09677   0.00003   0.00001  -0.00010  -0.00010   2.09667
   A13        2.09947  -0.00028   0.00009  -0.00125  -0.00116   2.09831
   A14        2.09675   0.00004   0.00001  -0.00008  -0.00007   2.09667
   A15        2.08696   0.00025  -0.00010   0.00134   0.00124   2.08820
   A16        2.08413   0.00057  -0.00018   0.00255   0.00237   2.08650
   A17        2.09921  -0.00029   0.00008  -0.00124  -0.00116   2.09806
   A18        2.09890  -0.00028   0.00009  -0.00122  -0.00114   2.09776
   A19        1.69942  -0.00025  -0.00083  -0.00157  -0.00241   1.69702
   A20        1.69944  -0.00025  -0.00083  -0.00159  -0.00242   1.69702
    D1       -0.01677   0.00009  -0.00085   0.00457   0.00371  -0.01306
    D2        3.12953   0.00003  -0.00025   0.00148   0.00122   3.13076
    D3        3.12933   0.00003  -0.00029   0.00161   0.00132   3.13065
    D4       -0.00755  -0.00003   0.00032  -0.00149  -0.00117  -0.00872
    D5        0.01645  -0.00008   0.00082  -0.00438  -0.00357   0.01288
    D6        3.11134  -0.00005   0.00050  -0.00220  -0.00170   3.10965
    D7       -3.12963  -0.00002   0.00026  -0.00144  -0.00119  -3.13081
    D8       -0.03473   0.00001  -0.00006   0.00074   0.00068  -0.03405
    D9        0.01658  -0.00009   0.00086  -0.00457  -0.00372   0.01286
   D10        3.11136  -0.00005   0.00051  -0.00222  -0.00171   3.10965
   D11       -3.12970  -0.00002   0.00026  -0.00150  -0.00124  -3.13094
   D12       -0.03492   0.00001  -0.00009   0.00085   0.00076  -0.03416
   D13       -0.01636   0.00009  -0.00084   0.00453   0.00370  -0.01266
   D14        3.12965   0.00002  -0.00027   0.00155   0.00129   3.13094
   D15       -3.11115   0.00005  -0.00050   0.00219   0.00169  -3.10945
   D16        0.03487  -0.00001   0.00008  -0.00080  -0.00072   0.03415
   D17        1.59322  -0.00003   0.00017  -0.00145  -0.00128   1.59193
   D18       -1.59559   0.00003  -0.00019   0.00102   0.00083  -1.59476
   D19        0.01633  -0.00009   0.00082  -0.00450  -0.00367   0.01266
   D20       -3.12971  -0.00003   0.00027  -0.00164  -0.00137  -3.13108
   D21       -3.12971  -0.00003   0.00025  -0.00150  -0.00124  -3.13095
   D22        0.00744   0.00003  -0.00031   0.00136   0.00105   0.00850
   D23       -0.01623   0.00008  -0.00081   0.00435   0.00355  -0.01268
   D24       -3.11113   0.00005  -0.00048   0.00216   0.00168  -3.10945
   D25        3.12978   0.00002  -0.00025   0.00151   0.00126   3.13104
   D26        0.03488  -0.00001   0.00007  -0.00067  -0.00060   0.03427
   D27        1.59092  -0.00003   0.00013  -0.00191  -0.00178   1.58914
   D28       -1.59777   0.00002  -0.00020   0.00039   0.00019  -1.59758
         Item               Value     Threshold  Converged?
 Maximum Force            0.000928     0.000450     NO 
 RMS     Force            0.000255     0.000300     YES
 Maximum Displacement     0.004097     0.001800     NO 
 RMS     Displacement     0.001341     0.001200     NO 
 Predicted change in Energy=-1.004549D-05
 GradGradGradGradGradGradGradGradGradGradGradGradGradGradGradGradGradGrad

                          Input orientation:                          
 ---------------------------------------------------------------------
 Center     Atomic      Atomic             Coordinates (Angstroms)
 Number     Number       Type             X           Y           Z
 ---------------------------------------------------------------------
      1          6           0       -1.802457   -1.260736   -0.006632
      2          6           0       -0.407784   -1.260870    0.008903
      3          6           0        0.296722   -0.051976    0.008009
      4          6           0       -0.407541    1.157083    0.007082
      5          6           0       -1.802197    1.157218   -0.008212
      6          6           0       -2.506712   -0.051696   -0.007427
      7          1           0       -2.347032   -2.199114   -0.016187
      8          1           0        0.136605   -2.199342    0.019665
      9          1           0        0.137108    2.095418    0.016434
     10          1           0       -2.346658    2.095647   -0.018777
     11         16           0       -4.310993   -0.051289   -0.077369
     12          1           0       -4.532838   -0.056030    1.255190
     13         16           0        2.101002   -0.051995    0.077946
     14          1           0        2.322843   -0.054905   -1.254620
 ---------------------------------------------------------------------
                    Distance matrix (angstroms):
                    1          2          3          4          5
     1  C    0.000000
     2  C    1.394759   0.000000
     3  C    2.422368   1.399198   0.000000
     4  C    2.791385   2.417954   1.399218   0.000000
     5  C    2.417955   2.791385   2.422369   1.394740   0.000000
     6  C    1.399197   2.422368   2.803476   2.422370   1.399219
     7  H    1.084991   2.154440   3.405910   3.876368   3.400275
     8  H    2.154445   1.084991   2.153359   3.400271   3.876367
     9  H    3.876366   3.400240   2.153334   1.084989   2.154467
    10  H    3.400237   3.876365   3.405945   2.154471   1.084988
    11  S    2.785771   4.087245   4.608506   4.087082   2.785557
    12  H    3.240138   4.474477   4.987998   4.477443   3.244157
    13  S    4.087200   2.785705   1.805635   2.785620   4.087124
    14  H    4.475444   3.241476   2.387343   3.242807   4.476464
                    6          7          8          9         10
     6  C    0.000000
     7  H    2.153365   0.000000
     8  H    3.405913   2.483896   0.000000
     9  H    3.405943   4.961352   4.294761   0.000000
    10  H    2.153329   4.294762   4.961351   2.484015   0.000000
    11  S    1.805637   2.911021   4.940109   4.939914   2.910563
    12  H    2.387343   3.314658   5.284317   5.288822   3.321459
    13  S    4.608505   4.940039   2.910902   2.910678   4.939980
    14  H    4.987995   5.285743   3.316933   3.319172   5.287383
                   11         12         13         14
    11  S    0.000000
    12  H    1.350908   0.000000
    13  S    6.413876   6.737489   0.000000
    14  H    6.737486   7.300651   1.350909   0.000000
 Stoichiometry    C6H6S2
 Framework group  C1[X(C6H6S2)]
 Deg. of freedom    36
 Full point group                 C1      NOp   1
 Largest Abelian subgroup         C1      NOp   1
 Largest concise Abelian subgroup C1      NOp   1
                         Standard orientation:                         
 ---------------------------------------------------------------------
 Center     Atomic      Atomic             Coordinates (Angstroms)
 Number     Number       Type             X           Y           Z
 ---------------------------------------------------------------------
      1          6           0        0.697347   -1.208945    0.008388
      2          6           0       -0.697314   -1.208966   -0.008180
      3          6           0       -1.401711   -0.000008   -0.008760
      4          6           0       -0.697340    1.208988   -0.008263
      5          6           0        0.697305    1.209009    0.008064
      6          6           0        1.401710    0.000032    0.008752
      7          1           0        1.241829   -2.147365    0.019085
      8          1           0       -1.241780   -2.147397   -0.018605
      9          1           0       -1.241896    2.147364   -0.018758
     10          1           0        1.241843    2.147397    0.018292
     11         16           0        3.205940    0.000331    0.080030
     12          1           0        3.428771   -0.005480   -1.252361
     13         16           0       -3.205939    0.000080   -0.080032
     14          1           0       -3.428766   -0.001759    1.252371
 ---------------------------------------------------------------------
 Rotational constants (GHZ):      5.4794956      0.6639172      0.5970418
 Standard basis: 6-31G(d,p) (6D, 7F)
 There are   158 symmetry adapted basis functions of A   symmetry.
 Integral buffers will be    262144 words long.
 Raffenetti 2 integral format.
 Two-electron integral symmetry is turned on.
   158 basis functions,   314 primitive gaussians,   158 cartesian basis functions
    37 alpha electrons       37 beta electrons
       nuclear repulsion energy       452.0005970046 Hartrees.
 NAtoms=   14 NActive=   14 NUniq=   14 SFac= 1.00D+00 NAtFMM=   50 NAOKFM=F Big=F
 One-electron integrals computed using PRISM.
 NBasis=   158 RedAO= T  NBF=   158
 NBsUse=   158 1.00D-06 NBFU=   158
 Initial guess read from the read-write file.
 B after Tr=     0.000000    0.000000    0.000000
         Rot=    1.000000    0.000000    0.000000    0.000000 Ang=   0.00 deg.
 Initial guess orbital symmetries:
       Occupied  (A) (A) (A) (A) (A) (A) (A) (A) (A) (A) (A) (A)
                 (A) (A) (A) (A) (A) (A) (A) (A) (A) (A) (A) (A)
                 (A) (A) (A) (A) (A) (A) (A) (A) (A) (A) (A) (A)
                 (A)
       Virtual   (A) (A) (A) (A) (A) (A) (A) (A) (A) (A) (A) (A)
                 (A) (A) (A) (A) (A) (A) (A) (A) (A) (A) (A) (A)
                 (A) (A) (A) (A) (A) (A) (A) (A) (A) (A) (A) (A)
                 (A) (A) (A) (A) (A) (A) (A) (A) (A) (A) (A) (A)
                 (A) (A) (A) (A) (A) (A) (A) (A) (A) (A) (A) (A)
                 (A) (A) (A) (A) (A) (A) (A) (A) (A) (A) (A) (A)
                 (A) (A) (A) (A) (A) (A) (A) (A) (A) (A) (A) (A)
                 (A) (A) (A) (A) (A) (A) (A) (A) (A) (A) (A) (A)
                 (A) (A) (A) (A) (A) (A) (A) (A) (A) (A) (A) (A)
                 (A) (A) (A) (A) (A) (A) (A) (A) (A) (A) (A) (A)
                 (A)
 Requested convergence on RMS density matrix=1.00D-08 within 128 cycles.
 Requested convergence on MAX density matrix=1.00D-06.
 Requested convergence on             energy=1.00D-06.
 No special actions if energy rises.
 SCF Done:  E(RB3LYP) =  -1028.62926996     A.U. after   13 cycles
             Convg  =    0.2644D-08             -V/T =  2.0048
 Calling FoFJK, ICntrl=      2127 FMM=F ISym2X=0 I1Cent= 0 IOpClX= 0 NMat=1 NMatS=1 NMatT=0.
 ***** Axes restored to original set *****
 -------------------------------------------------------------------
 Center     Atomic                   Forces (Hartrees/Bohr)
 Number     Number              X              Y              Z
 -------------------------------------------------------------------
      1        6          -0.000385755    0.000049781   -0.000034779
      2        6           0.000386417    0.000048908    0.000038881
      3        6          -0.000609597    0.000019726   -0.000005316
      4        6           0.000425034   -0.000070124    0.000037160
      5        6          -0.000426084   -0.000070022   -0.000039237
      6        6           0.000609244    0.000015963    0.000003016
      7        1          -0.000002724    0.000002936   -0.000008433
      8        1           0.000003071    0.000003347    0.000007906
      9        1          -0.000001226   -0.000000828    0.000006569
     10        1           0.000000643   -0.000001073   -0.000006163
     11       16          -0.000182417    0.000005889    0.000192717
     12        1          -0.000030317   -0.000003539   -0.000149658
     13       16           0.000183560   -0.000000212   -0.000192352
     14        1           0.000030150   -0.000000752    0.000149689
 -------------------------------------------------------------------
 Cartesian Forces:  Max     0.000609597 RMS     0.000195921

 GradGradGradGradGradGradGradGradGradGradGradGradGradGradGradGradGradGrad
 Berny optimization.
 Using GEDIIS/GDIIS optimizer.
 Internal  Forces:  Max     0.000220398 RMS     0.000087825
 Search for a local minimum.
 Step number   4 out of a maximum of   72
 All quantities printed in internal units (Hartrees-Bohrs-Radians)
 Mixed Optimization -- En-DIIS/RFO-DIIS
 Swaping is turned off.
 Update second derivatives using D2CorX and points    1    2    3    4
 DE= -1.14D-05 DEPred=-1.00D-05 R= 1.14D+00
 SS=  1.41D+00  RLast= 1.40D-02 DXNew= 8.4853D-01 4.2105D-02
 Trust test= 1.14D+00 RLast= 1.40D-02 DXMaxT set to 5.05D-01
 ITU=  1  1  1  0
     Eigenvalues ---    0.00634   0.00635   0.01853   0.01979   0.02152
     Eigenvalues ---    0.02154   0.02154   0.02155   0.02156   0.02157
     Eigenvalues ---    0.02400   0.15563   0.16000   0.16000   0.16000
     Eigenvalues ---    0.16015   0.16179   0.19865   0.21998   0.22972
     Eigenvalues ---    0.24974   0.24974   0.26448   0.27758   0.28975
     Eigenvalues ---    0.29429   0.33711   0.33719   0.33723   0.34205
     Eigenvalues ---    0.42105   0.42521   0.45898   0.46456   0.46469
     Eigenvalues ---    0.48027
 En-DIIS/RFO-DIIS IScMMF=        0 using points:     4    3
 RFO step:  Lambda=-9.66506332D-07.
 DidBck=F Rises=F RFO-DIIS coefs:    1.16234   -0.16234
 Iteration  1 RMS(Cart)=  0.00048324 RMS(Int)=  0.00000030
 Iteration  2 RMS(Cart)=  0.00000023 RMS(Int)=  0.00000019
 Variable       Old X    -DE/DX   Delta X   Delta X   Delta X     New X
                                  (DIIS)     (GDIIS)  (Total)
    R1        2.63571   0.00020  -0.00007   0.00053   0.00046   2.63617
    R2        2.64410  -0.00014  -0.00009  -0.00030  -0.00039   2.64371
    R3        2.05034   0.00000   0.00009  -0.00009   0.00000   2.05033
    R4        2.64410  -0.00014  -0.00009  -0.00030  -0.00039   2.64372
    R5        2.05034   0.00000   0.00009  -0.00009  -0.00001   2.05033
    R6        2.64414  -0.00016  -0.00011  -0.00034  -0.00046   2.64368
    R7        3.41216   0.00021   0.00073   0.00064   0.00137   3.41353
    R8        2.63568   0.00022  -0.00005   0.00057   0.00052   2.63620
    R9        2.05033   0.00000   0.00009  -0.00009  -0.00001   2.05033
   R10        2.64414  -0.00016  -0.00011  -0.00034  -0.00046   2.64369
   R11        2.05033   0.00000   0.00009  -0.00009  -0.00001   2.05032
   R12        3.41216   0.00021   0.00073   0.00064   0.00137   3.41353
   R13        2.55285  -0.00014   0.00002  -0.00045  -0.00044   2.55241
   R14        2.55285  -0.00014   0.00002  -0.00045  -0.00044   2.55241
    A1        2.09831  -0.00008  -0.00019  -0.00029  -0.00048   2.09783
    A2        2.09659   0.00005   0.00000   0.00023   0.00023   2.09682
    A3        2.08828   0.00004   0.00019   0.00006   0.00025   2.08853
    A4        2.09831  -0.00008  -0.00019  -0.00029  -0.00048   2.09783
    A5        2.09660   0.00005   0.00000   0.00023   0.00024   2.09684
    A6        2.08827   0.00004   0.00019   0.00005   0.00024   2.08851
    A7        2.08650   0.00017   0.00039   0.00056   0.00095   2.08745
    A8        2.09797  -0.00008  -0.00019  -0.00030  -0.00049   2.09748
    A9        2.09784  -0.00008  -0.00018  -0.00029  -0.00047   2.09737
   A10        2.09831  -0.00008  -0.00019  -0.00029  -0.00048   2.09783
   A11        2.08821   0.00004   0.00020   0.00008   0.00029   2.08849
   A12        2.09667   0.00004  -0.00002   0.00021   0.00019   2.09686
   A13        2.09831  -0.00008  -0.00019  -0.00029  -0.00048   2.09783
   A14        2.09667   0.00004  -0.00001   0.00021   0.00020   2.09687
   A15        2.08820   0.00004   0.00020   0.00008   0.00028   2.08848
   A16        2.08650   0.00017   0.00038   0.00057   0.00095   2.08745
   A17        2.09806  -0.00008  -0.00019  -0.00028  -0.00047   2.09759
   A18        2.09776  -0.00009  -0.00018  -0.00031  -0.00050   2.09726
   A19        1.69702   0.00014  -0.00039   0.00085   0.00046   1.69748
   A20        1.69702   0.00014  -0.00039   0.00085   0.00046   1.69747
    D1       -0.01306  -0.00001   0.00060  -0.00107  -0.00047  -0.01353
    D2        3.13076  -0.00001   0.00020  -0.00050  -0.00030   3.13045
    D3        3.13065  -0.00001   0.00021  -0.00055  -0.00034   3.13031
    D4       -0.00872   0.00000  -0.00019   0.00002  -0.00017  -0.00889
    D5        0.01288   0.00001  -0.00058   0.00101   0.00043   0.01332
    D6        3.10965   0.00001  -0.00028   0.00041   0.00013   3.10978
    D7       -3.13081   0.00001  -0.00019   0.00050   0.00030  -3.13051
    D8       -0.03405   0.00000   0.00011  -0.00011   0.00000  -0.03405
    D9        0.01286   0.00001  -0.00060   0.00107   0.00046   0.01333
   D10        3.10965   0.00001  -0.00028   0.00041   0.00013   3.10978
   D11       -3.13094   0.00001  -0.00020   0.00050   0.00030  -3.13065
   D12       -0.03416   0.00000   0.00012  -0.00016  -0.00004  -0.03419
   D13       -0.01266  -0.00001   0.00060  -0.00101  -0.00041  -0.01307
   D14        3.13094  -0.00001   0.00021  -0.00050  -0.00029   3.13064
   D15       -3.10945  -0.00001   0.00027  -0.00035  -0.00007  -3.10953
[...]
 ! R3    R(1,7)                  1.0861         -DE/DX =    0.0                 !
 ! R4    R(2,3)                  1.3987         -DE/DX =    0.0                 !
 ! R5    R(2,8)                  1.0861         -DE/DX =    0.0                 !
 ! R6    R(3,4)                  1.401          -DE/DX =    0.0                 !
 ! R7    R(3,13)                 1.7883         -DE/DX =    0.0                 !
 ! R8    R(4,5)                  1.391          -DE/DX =    0.0                 !
 ! R9    R(4,9)                  1.086          -DE/DX =    0.0                 !
 ! R10   R(5,6)                  1.401          -DE/DX =    0.0                 !
 ! R11   R(5,10)                 1.086          -DE/DX =    0.0                 !
 ! R12   R(6,11)                 1.7883         -DE/DX =    0.0                 !
 ! R13   R(11,12)                1.3468         -DE/DX =    0.0                 !
 ! R14   R(13,14)                1.3468         -DE/DX =    0.0                 !
 ! A1    A(2,1,6)              120.5635         -DE/DX =    0.0                 !
 ! A2    A(2,1,7)              119.0081         -DE/DX =    0.0                 !
 ! A3    A(6,1,7)              120.4284         -DE/DX =    0.0                 !
 ! A4    A(1,2,3)              120.5634         -DE/DX =    0.0                 !
 ! A5    A(1,2,8)              119.0085         -DE/DX =    0.0                 !
 ! A6    A(3,2,8)              120.4281         -DE/DX =    0.0                 !
 ! A7    A(2,3,4)              118.8596         -DE/DX =    0.0                 !
 ! A8    A(2,3,13)             123.1358         -DE/DX =    0.0                 !
 ! A9    A(4,3,13)             118.0046         -DE/DX =    0.0                 !
 ! A10   A(3,4,5)              120.5772         -DE/DX =    0.0                 !
 ! A11   A(3,4,9)              120.097          -DE/DX =    0.0                 !
 ! A12   A(5,4,9)              119.3259         -DE/DX =    0.0                 !
 ! A13   A(4,5,6)              120.5771         -DE/DX =    0.0                 !
 ! A14   A(4,5,10)             119.325          -DE/DX =    0.0                 !
 ! A15   A(6,5,10)             120.098          -DE/DX =    0.0                 !
 ! A16   A(1,6,5)              118.8594         -DE/DX =    0.0                 !
 ! A17   A(1,6,11)             123.1355         -DE/DX =    0.0                 !
 ! A18   A(5,6,11)             118.0052         -DE/DX =    0.0                 !
 ! A19   A(6,11,12)             96.8725         -DE/DX =    0.0                 !
 ! A20   A(3,13,14)             96.8728         -DE/DX =    0.0                 !
 ! D1    D(6,1,2,3)             -0.0048         -DE/DX =    0.0                 !
 ! D2    D(6,1,2,8)           -180.0058         -DE/DX =    0.0                 !
 ! D3    D(7,1,2,3)            179.9971         -DE/DX =    0.0                 !
 ! D4    D(7,1,2,8)             -0.0039         -DE/DX =    0.0                 !
 ! D5    D(2,1,6,5)              0.0022         -DE/DX =    0.0                 !
 ! D6    D(2,1,6,11)           180.001          -DE/DX =    0.0                 !
 ! D7    D(7,1,6,5)           -179.9998         -DE/DX =    0.0                 !
 ! D8    D(7,1,6,11)            -0.001          -DE/DX =    0.0                 !
 ! D9    D(1,2,3,4)              0.0036         -DE/DX =    0.0                 !
 ! D10   D(1,2,3,13)          -180.0015         -DE/DX =    0.0                 !
 ! D11   D(8,2,3,4)            180.0047         -DE/DX =    0.0                 !
 ! D12   D(8,2,3,13)            -0.0005         -DE/DX =    0.0                 !
 ! D13   D(2,3,4,5)              0.0001         -DE/DX =    0.0                 !
 ! D14   D(2,3,4,9)            180.0001         -DE/DX =    0.0                 !
 ! D15   D(13,3,4,5)           180.005          -DE/DX =    0.0                 !
 ! D16   D(13,3,4,9)             0.0049         -DE/DX =    0.0                 !
 ! D17   D(2,3,13,14)            0.0569         -DE/DX =    0.0                 !
 ! D18   D(4,3,13,14)          180.0517         -DE/DX =    0.0                 !
 ! D19   D(3,4,5,6)             -0.0027         -DE/DX =    0.0                 !
 ! D20   D(3,4,5,10)           179.9981         -DE/DX =    0.0                 !
 ! D21   D(9,4,5,6)           -180.0027         -DE/DX =    0.0                 !
 ! D22   D(9,4,5,10)            -0.0019         -DE/DX =    0.0                 !
 ! D23   D(4,5,6,1)              0.0016         -DE/DX =    0.0                 !
 ! D24   D(4,5,6,11)          -179.9973         -DE/DX =    0.0                 !
 ! D25   D(10,5,6,1)          -179.9992         -DE/DX =    0.0                 !
 ! D26   D(10,5,6,11)            0.0019         -DE/DX =    0.0                 !
 ! D27   D(1,6,11,12)            0.0177         -DE/DX =    0.0                 !
 ! D28   D(5,6,11,12)         -179.9835         -DE/DX =    0.0                 !
 --------------------------------------------------------------------------------
 GradGradGradGradGradGradGradGradGradGradGradGradGradGradGradGradGradGrad

                          Input orientation:                          
 ---------------------------------------------------------------------
 Center     Atomic      Atomic             Coordinates (Angstroms)
 Number     Number       Type             X           Y           Z
 ---------------------------------------------------------------------
      1          6           0       -1.797580   -1.089040    0.089434
      2          6           0       -0.417115   -1.090721   -0.104318
      3          6           0        0.289908    0.112717   -0.194197
      4          6           0       -0.413130    1.319746   -0.086076
      5          6           0       -1.790624    1.321426    0.107338
      6          6           0       -2.499143    0.116117    0.197357
      7          1           0       -2.321288   -2.038183    0.155512
      8          1           0        0.102295   -2.041131   -0.184579
      9          1           0        0.115745    2.265893   -0.152950
     10          1           0       -2.315181    2.268867    0.188408
     11         16           0       -4.268112    0.198518    0.446293
     12          1           0       -4.489926   -1.129703    0.467426
     13         16           0        2.059268    0.190824   -0.441868
     14          1           0        2.274951   -1.137922   -0.483775
 ---------------------------------------------------------------------
                    Distance matrix (angstroms):
                    1          2          3          4          5
     1  C    0.000000
     2  C    1.393997   0.000000
     3  C    2.425340   1.398650   0.000000
     4  C    2.783839   2.410540   1.401025   0.000000
     5  C    2.410543   2.783842   2.424977   1.391007   0.000000
     6  C    1.398656   2.425346   2.816404   2.424976   1.401026
     7  H    1.086051   2.142678   3.401030   3.869770   3.401602
     8  H    2.142682   1.086051   2.162025   3.401597   3.869773
     9  H    3.869772   3.398995   2.160603   1.085990   2.143364
    10  H    3.399007   3.869777   3.403213   2.143355   1.085991
    11  S    2.808679   4.098230   4.603600   4.049871   2.741124
    12  H    2.719055   4.112931   4.982787   4.788156   3.663868
    13  S    4.098245   2.808696   1.788317   2.741132   4.049883
    14  H    4.112963   2.719087   2.363968   3.663887   4.788183
                    6          7          8          9         10
     6  C    0.000000
     7  H    2.162034   0.000000
     8  H    3.401040   2.447330   0.000000
     9  H    3.403217   4.955738   4.307161   0.000000
    10  H    2.160615   4.307180   4.955743   2.454777   0.000000
    11  S    1.788298   2.979515   4.951210   4.883782   2.857760
    12  H    2.363942   2.371839   4.726977   5.755618   4.044459
    13  S    4.603618   4.951222   2.979524   2.857738   4.883780
    14  H    4.982823   4.727004   2.371864   4.044449   5.755636
                   11         12         13         14
    11  S    0.000000
    12  H    1.346781   0.000000
    13  S    6.389415   6.742592   0.000000
    14  H    6.742608   6.831428   1.346789   0.000000
 Stoichiometry    C6H6S2
 Framework group  C1[X(C6H6S2)]
 Deg. of freedom    36
 Full point group                 C1      NOp   1
 Largest Abelian subgroup         C1      NOp   1
 Largest concise Abelian subgroup C1      NOp   1
                         Standard orientation:                         
 ---------------------------------------------------------------------
 Center     Atomic      Atomic             Coordinates (Angstroms)
 Number     Number       Type             X           Y           Z
 ---------------------------------------------------------------------
      1          6           0       -0.697003    1.205575    0.000001
      2          6           0        0.696994    1.205578   -0.000042
      3          6           0        1.408196    0.001247    0.000014
      4          6           0        0.695502   -1.204962    0.000037
      5          6           0       -0.695506   -1.204967    0.000001
      6          6           0       -1.408207    0.001238    0.000000
      7          1           0       -1.223668    2.155382    0.000002
      8          1           0        1.223662    2.155382   -0.000137
      9          1           0        1.227397   -2.151778    0.000082
     10          1           0       -1.227380   -2.151797   -0.000012
     11         16           0       -3.194704   -0.079014    0.000027
     12          1           0       -3.415703    1.249511   -0.000370
     13         16           0        3.194711   -0.079015   -0.000075
     14          1           0        3.415725    1.249514    0.001136
 ---------------------------------------------------------------------
 Rotational constants (GHZ):      5.4975386      0.6711033      0.5980922

 **********************************************************************

            Population analysis using the SCF density.

 **********************************************************************

 Orbital symmetries:
       Occupied  (A) (A) (A) (A) (A) (A) (A) (A) (A) (A) (A) (A)
                 (A) (A) (A) (A) (A) (A) (A) (A) (A) (A) (A) (A)
                 (A) (A) (A) (A) (A) (A) (A) (A) (A) (A) (A) (A)
                 (A)
       Virtual   (A) (A) (A) (A) (A) (A) (A) (A) (A) (A) (A) (A)
                 (A) (A) (A) (A) (A) (A) (A) (A) (A) (A) (A) (A)
                 (A) (A) (A) (A) (A) (A) (A) (A) (A) (A) (A) (A)
                 (A) (A) (A) (A) (A) (A) (A) (A) (A) (A) (A) (A)
                 (A) (A) (A) (A) (A) (A) (A) (A) (A) (A) (A) (A)
                 (A) (A) (A) (A) (A) (A) (A) (A) (A) (A) (A) (A)
                 (A) (A) (A) (A) (A) (A) (A) (A) (A) (A) (A) (A)
                 (A) (A) (A) (A) (A) (A) (A) (A) (A) (A) (A) (A)
                 (A) (A) (A) (A) (A) (A) (A) (A) (A) (A) (A) (A)
                 (A) (A) (A) (A) (A) (A) (A) (A) (A) (A) (A) (A)
                 (A)
 The electronic state is 1-A.
 Alpha  occ. eigenvalues --  -88.89337 -88.89337 -10.23329 -10.23328 -10.20646
 Alpha  occ. eigenvalues --  -10.20591 -10.20427 -10.20370  -7.95558  -7.95558
 Alpha  occ. eigenvalues --   -5.92071  -5.92069  -5.91677  -5.91676  -5.91033
 Alpha  occ. eigenvalues --   -5.91033  -0.87690  -0.81234  -0.75988  -0.75352
 Alpha  occ. eigenvalues --   -0.68670  -0.62454  -0.59235  -0.51376  -0.47610
 Alpha  occ. eigenvalues --   -0.47049  -0.43523  -0.43456  -0.39137  -0.39065
 Alpha  occ. eigenvalues --   -0.36879  -0.35278  -0.33509  -0.32458  -0.26463
 Alpha  occ. eigenvalues --   -0.26186  -0.20759
 Alpha virt. eigenvalues --   -0.01394  -0.00897   0.00420   0.02046   0.06713
 Alpha virt. eigenvalues --    0.07056   0.12432   0.13362   0.13938   0.16884
 Alpha virt. eigenvalues --    0.18053   0.24539   0.24823   0.28544   0.29102
 Alpha virt. eigenvalues --    0.30888   0.32347   0.34843   0.36317   0.36491
 Alpha virt. eigenvalues --    0.36507   0.37485   0.39178   0.45368   0.52512
 Alpha virt. eigenvalues --    0.54092   0.54802   0.56621   0.58287   0.58371
 Alpha virt. eigenvalues --    0.58606   0.59914   0.60567   0.63641   0.63669
 Alpha virt. eigenvalues --    0.70705   0.72020   0.72599   0.73721   0.74405
 Alpha virt. eigenvalues --    0.74965   0.75147   0.80221   0.80867   0.81649
 Alpha virt. eigenvalues --    0.84127   0.87626   0.89821   0.90105   0.90550
 Alpha virt. eigenvalues --    0.93537   0.98364   1.01957   1.03983   1.04062
 Alpha virt. eigenvalues --    1.12454   1.13480   1.14682   1.14759   1.23154
 Alpha virt. eigenvalues --    1.23859   1.28285   1.32347   1.33590   1.39138
 Alpha virt. eigenvalues --    1.39628   1.40624   1.42330   1.52262   1.52811
 Alpha virt. eigenvalues --    1.75010   1.75480   1.79303   1.81644   1.91335
 Alpha virt. eigenvalues --    1.93459   1.95511   1.98606   1.98670   2.04638
 Alpha virt. eigenvalues --    2.05970   2.07506   2.07516   2.07531   2.09169
 Alpha virt. eigenvalues --    2.11862   2.13854   2.25946   2.30013   2.35619
 Alpha virt. eigenvalues --    2.39768   2.41294   2.45233   2.48065   2.49326
 Alpha virt. eigenvalues --    2.51068   2.58137   2.61008   2.63151   2.65163
 Alpha virt. eigenvalues --    2.66950   2.71499   2.71717   2.74070   2.80357
 Alpha virt. eigenvalues --    2.83110   3.04248   3.17162   3.23515   3.23717
 Alpha virt. eigenvalues --    3.32473   3.49013   3.73235   3.96670   4.00928
 Alpha virt. eigenvalues --    4.12544   4.14397   4.15845   4.36296   4.42007
 Alpha virt. eigenvalues --    4.73831
          Condensed to atoms (all electrons):
              1          2          3          4          5          6
     1  C    4.861195   0.512717  -0.035614  -0.043206  -0.019200   0.519388
     2  C    0.512717   4.861189   0.519392  -0.019202  -0.043206  -0.035613
     3  C   -0.035614   0.519392   4.991443   0.537265  -0.035882  -0.037122
     4  C   -0.043206  -0.019202   0.537265   4.812808   0.546581  -0.035882
     5  C   -0.019200  -0.043206  -0.035882   0.546581   4.812812   0.537263
     6  C    0.519388  -0.035613  -0.037122  -0.035882   0.537263   4.991447
     7  H    0.373150  -0.035128   0.005137   0.000701   0.004100  -0.050672
     8  H   -0.035128   0.373149  -0.050672   0.004100   0.000701   0.005137
     9  H    0.000648   0.004520  -0.048453   0.373351  -0.037572   0.005347
    10  H    0.004519   0.000647   0.005347  -0.037573   0.373352  -0.048453
    11  S   -0.056831   0.005291   0.000726   0.004975  -0.057356   0.258464
    12  H   -0.002489   0.000374   0.000005  -0.000130   0.002350  -0.016082
    13  S    0.005291  -0.056830   0.258462  -0.057354   0.004975   0.000726
    14  H    0.000374  -0.002488  -0.016081   0.002350  -0.000130   0.000005
              7          8          9         10         11         12
     1  C    0.373150  -0.035128   0.000648   0.004519  -0.056831  -0.002489
     2  C   -0.035128   0.373149   0.004520   0.000647   0.005291   0.000374
     3  C    0.005137  -0.050672  -0.048453   0.005347   0.000726   0.000005
     4  C    0.000701   0.004100   0.373351  -0.037573   0.004975  -0.000130
     5  C    0.004100   0.000701  -0.037572   0.373352  -0.057356   0.002350
     6  C   -0.050672   0.005137   0.005347  -0.048453   0.258464  -0.016082
     7  H    0.627049  -0.007352   0.000014  -0.000191  -0.007960   0.003428
     8  H   -0.007352   0.627048  -0.000191   0.000014  -0.000198  -0.000008
     9  H    0.000014  -0.000191   0.608929  -0.006685  -0.000208   0.000001
    10  H   -0.000191   0.000014  -0.006685   0.608928  -0.002100   0.000034
    11  S   -0.007960  -0.000198  -0.000208  -0.002100  15.572324   0.266284
    12  H    0.003428  -0.000008   0.000001   0.000034   0.266284   0.685547
    13  S   -0.000198  -0.007959  -0.002100  -0.000208   0.000016   0.000000
    14  H   -0.000008   0.003428   0.000034   0.000001   0.000000   0.000000
             13         14
     1  C    0.005291   0.000374
     2  C   -0.056830  -0.002488
     3  C    0.258462  -0.016081
     4  C   -0.057354   0.002350
     5  C    0.004975  -0.000130
     6  C    0.000726   0.000005
     7  H   -0.000198  -0.000008
     8  H   -0.007959   0.003428
     9  H   -0.002100   0.000034
    10  H   -0.000208   0.000001
    11  S    0.000016   0.000000
    12  H    0.000000   0.000000
    13  S   15.572329   0.266284
    14  H    0.266284   0.685547
 Mulliken atomic charges:
              1
     1  C   -0.084813
     2  C   -0.084811
     3  C   -0.093953
     4  C   -0.088785
     5  C   -0.088786
     6  C   -0.093954
     7  H    0.087930
     8  H    0.087930
     9  H    0.102365
    10  H    0.102366
    11  S    0.016573
    12  H    0.060685
    13  S    0.016568
    14  H    0.060685
 Sum of Mulliken atomic charges =   0.00000
 Mulliken charges with hydrogens summed into heavy atoms:
              1
     1  C    0.003117
     2  C    0.003119
     3  C   -0.093953
     4  C    0.013581
     5  C    0.013579
     6  C   -0.093954
    11  S    0.077258
    13  S    0.077253
 Sum of Mulliken charges with hydrogens summed into heavy atoms =   0.00000
 Electronic spatial extent (au):  <R**2>=           1735.6985
 Charge=              0.0000 electrons
 Dipole moment (field-independent basis, Debye):
    X=              0.0000    Y=              1.7673    Z=              0.0005  Tot=              1.7673
 Quadrupole moment (field-independent basis, Debye-Ang):
   XX=            -62.9054   YY=            -52.6465   ZZ=            -66.6678
   XY=              0.0000   XZ=              0.0046   YZ=              0.0016
 Traceless Quadrupole moment (field-independent basis, Debye-Ang):
   XX=             -2.1655   YY=              8.0934   ZZ=             -5.9279
   XY=              0.0000   XZ=              0.0046   YZ=              0.0016
 Octapole moment (field-independent basis, Debye-Ang**2):
  XXX=             -0.0003  YYY=              1.7931  ZZZ=              0.0007  XYY=              0.0000
  XXY=             29.2267  XXZ=              0.0089  XZZ=             -0.0001  YZZ=              0.6620
  YYZ=              0.0001  XYZ=              0.0118
 Hexadecapole moment (field-independent basis, Debye-Ang**3):
 XXXX=          -1938.7084 YYYY=           -302.1541 ZZZZ=            -78.9541 XXXY=              0.0004
 XXXZ=              0.0687 YYYX=              0.0001 YYYZ=              0.0015 ZZZX=              0.0056
 ZZZY=              0.0017 XXYY=           -339.8705 XXZZ=           -376.3446 YYZZ=            -73.9638
 XXYZ=              0.0206 YYXZ=              0.0031 ZZXY=              0.0000
 N-N= 4.534926241281D+02 E-N=-3.336671840365D+03  KE= 1.023712852952D+03
 1|1|UNPC-DESKTOP-O4VI3MH|FOpt|RB3LYP|6-31G(d,p)|C6H6S2|LUCAS|04-Feb-20
 22|0||# opt b3lyp/6-31g(d,p) geom=connectivity||Title Card Required||0
 ,1|C,-1.7975804264,-1.0890398174,0.0894337306|C,-0.4171151746,-1.09072
 10809,-0.1043182694|C,0.2899078909,0.1127166563,-0.1941966027|C,-0.413
 1295546,1.3197462745,-0.0860756752|C,-1.7906236673,1.3214261546,0.1073
 38344|C,-2.4991428395,0.116116916,0.1973566792|H,-2.3212875803,-2.0381
 825524,0.155512301|H,0.1022947339,-2.0411308734,-0.1845794145|H,0.1157
 445731,2.2658932311,-0.1529498976|H,-2.3151805166,2.2688673345,0.18840
 83457|S,-4.2681117122,0.1985183034,0.446292989|H,-4.4899263697,-1.1297
 025056,0.4674259778|S,2.059267972,0.1908240927,-0.4418680128|H,2.27495
 06413,-1.1379215736,-0.4837754051||Version=IA32W-G09RevB.01|State=1-A|
 HF=-1028.6313815|RMSD=2.920e-009|RMSF=3.209e-006|Dipole=-0.0016263,-0.
 6952976,-0.0054336|Quadrupole=-1.6649787,6.0166072,-4.3516284,0.020521
 ,-0.3881966,0.0800007|PG=C01 [X(C6H6S2)]||@


 K N O W I N G  IS A BARRIER WHICH PREVENTS LEARNING

                     -- TEACHING OF THE BENE GESSERIT
 Job cpu time:  0 days  0 hours 19 minutes 59.0 seconds.
 File lengths (MBytes):  RWF=     20 Int=      0 D2E=      0 Chk=      2 Scr=      1
 Normal termination of Gaussian 09 at Fri Feb 04 19:41:28 2022.
